 Gaussian 16, Revision C.01,
 Gaussian 16:  ES64L-G16RevC.01  3-Jul-2019

 ----------------------------------------------------
 # opt freq b3lyp/6-31g(d) scrf=(smd,solvent=toluene)
 ----------------------------------------------------

 --------------
 biphenMeCHNCH2
 --------------
 Symbolic Z-matrix:
 Charge =  0 Multiplicity = 1

 SCF Done:  E(RB3LYP) =  -807.444331714     A.U. after   13 cycles
 SCF Done:  E(RB3LYP) =  -807.464613088     A.U. after   11 cycles
 SCF Done:  E(RB3LYP) =  -807.469526358     A.U. after   12 cycles
 SCF Done:  E(RB3LYP) =  -807.469946075     A.U. after   11 cycles
 SCF Done:  E(RB3LYP) =  -807.470016127     A.U. after   10 cycles
 SCF Done:  E(RB3LYP) =  -807.470028271     A.U. after   10 cycles
 SCF Done:  E(RB3LYP) =  -807.470037669     A.U. after    9 cycles
 SCF Done:  E(RB3LYP) =  -807.470041046     A.U. after    8 cycles
 SCF Done:  E(RB3LYP) =  -807.470042361     A.U. after    8 cycles
 SCF Done:  E(RB3LYP) =  -807.470042648     A.U. after    8 cycles
 SCF Done:  E(RB3LYP) =  -807.470042808     A.U. after    7 cycles
 SCF Done:  E(RB3LYP) =  -807.470042860     A.U. after    6 cycles
 SCF Done:  E(RB3LYP) =  -807.470042909     A.U. after    6 cycles
 SCF Done:  E(RB3LYP) =  -807.470042933     A.U. after    6 cycles
 Optimization completed.
    -- Stationary point found.
 Normal termination of Gaussian 16 at Mon Sep 12 11:32:20 2022.

 --------------------------------------------------------------------
 #N Geom=AllCheck Guess=TCheck SCRF=Check GenChk RB3LYP/6-31G(d) Freq
 --------------------------------------------------------------------

 Structure from the checkpoint file:  "/home/rong/gdata/080322/Y10B1-2.chk"
 --------------
 biphenMeCHNCH2
 --------------
 Charge =  0 Multiplicity = 1

                         Standard orientation:
 ---------------------------------------------------------------------
 Center     Atomic      Atomic             Coordinates (Angstroms)
 Number     Number       Type             X           Y           Z
 ---------------------------------------------------------------------
      1          6           0        1.597752   -0.584266   -0.358792
      2          6           0        2.463944   -1.688499   -0.381846
      3          6           0        2.219003   -2.784458    0.440333
      4          6           0        1.114098   -2.783810    1.289498
      5          6           0        0.226492   -1.699251    1.319591
      6          6           0        0.462407   -0.591064    0.481568
      7          1           0        3.303502   -1.691495   -1.071239
      8          1           0        2.887013   -3.641815    0.415164
      9          1           0        0.923549   -3.641360    1.930356
     10          6           0       -0.462402    0.590924    0.481668
     11          6           0       -1.597800    0.584330   -0.358639
     12          6           0       -0.226336    1.698954    1.319862
     13          6           0       -2.463826    1.688692   -0.381523
     14          6           0       -1.113817    2.783632    1.289935
     15          6           0       -2.218722    2.784525    0.440780
     16          1           0       -3.303411    1.691914   -1.070885
     17          1           0       -0.923172    3.641068    1.930916
     18          1           0       -2.886621    3.641972    0.415698
     19          7           0       -1.788930   -0.523527   -1.213404
     20          6           0       -2.952852   -1.025909   -1.354858
     21          1           0       -3.815997   -0.655597   -0.778979
     22          6           0       -3.219007   -2.150844   -2.304714
     23          1           0       -3.639631   -3.014382   -1.771929
     24          1           0       -3.965107   -1.850050   -3.053092
     25          1           0       -2.299454   -2.451442   -2.813453
     26          7           0        1.788703    0.523674   -1.213557
     27          6           0        2.952563    1.026251   -1.354870
     28          1           0        3.815678    0.656004   -0.778934
     29          6           0        3.218637    2.151174   -2.304803
     30          1           0        3.964562    1.850328   -3.053329
     31          1           0        2.298963    2.451749   -2.813336
     32          1           0        3.639390    3.014699   -1.772110
     33          6           0       -0.974792   -1.740001    2.236204
     34          1           0       -1.020353   -0.864891    2.894843
     35          1           0       -1.912784   -1.756019    1.667365
     36          1           0       -0.953544   -2.634752    2.866762
     37          6           0        0.974958    1.739474    2.236465
     38          1           0        1.912948    1.755835    1.667626
     39          1           0        0.953617    2.633979    2.867369
     40          1           0        1.020646    0.864112    2.894755
 ---------------------------------------------------------------------

 SCF Done:  E(RB3LYP) =  -807.470042933     A.U. after    1 cycles

 The electronic state is 1-A.
 Alpha  occ. eigenvalues --  -14.32483 -14.32483 -10.22995 -10.22995 -10.21132
 Alpha  occ. eigenvalues --  -10.21132 -10.18967 -10.18967 -10.18542 -10.18515
 Alpha  occ. eigenvalues --  -10.18092 -10.18092 -10.17890 -10.17890 -10.17829
 Alpha  occ. eigenvalues --  -10.17829 -10.17582 -10.17582 -10.17219 -10.17219
 Alpha  occ. eigenvalues --   -0.92865  -0.92392  -0.85035  -0.83344  -0.77034
 Alpha  occ. eigenvalues --   -0.76247  -0.76108  -0.73871  -0.71674  -0.69654
 Alpha  occ. eigenvalues --   -0.67660  -0.67050  -0.61345  -0.60390  -0.59769
 Alpha  occ. eigenvalues --   -0.56354  -0.53965  -0.53918  -0.51205  -0.50020
 Alpha  occ. eigenvalues --   -0.47845  -0.46653  -0.46344  -0.45403  -0.42384
 Alpha  occ. eigenvalues --   -0.41962  -0.41894  -0.41119  -0.41113  -0.40803
 Alpha  occ. eigenvalues --   -0.40678  -0.39910  -0.39660  -0.38452  -0.38238
 Alpha  occ. eigenvalues --   -0.37840  -0.37797  -0.35806  -0.35253  -0.35099
 Alpha  occ. eigenvalues --   -0.34412  -0.33359  -0.32508  -0.30551  -0.30361
 Alpha  occ. eigenvalues --   -0.26567  -0.26119  -0.23131  -0.23118  -0.21752
 Alpha  occ. eigenvalues --   -0.21039
 Alpha virt. eigenvalues --   -0.02505  -0.01344   0.00515   0.00748   0.03713
 Alpha virt. eigenvalues --    0.04310   0.10777   0.10999   0.11873   0.12231
 Alpha virt. eigenvalues --    0.12708   0.14230   0.14765   0.14853   0.15124

 Mulliken charges:
               1
     1  C    0.250774
     2  C   -0.180648
     3  C   -0.142992
     4  C   -0.208663
     5  C    0.150847
     6  C   -0.030006
     7  H    0.138006
     8  H    0.138278
     9  H    0.129986
    10  C   -0.030025
    11  C    0.250815
    12  C    0.150854
    13  C   -0.180659
    14  C   -0.208658
    15  C   -0.142987
    16  H    0.138003
    17  H    0.129987
    18  H    0.138278
    19  N   -0.441365
    20  C    0.095068
    21  H    0.133463
    22  C   -0.505487
    23  H    0.170547
    24  H    0.170923
    25  H    0.181851
    26  N   -0.441348
    27  C    0.095066
    28  H    0.133466
    29  C   -0.505488
    30  H    0.170933
    31  H    0.181851
    32  H    0.170537
    33  C   -0.543167
    34  H    0.168263
    35  H    0.168296
    36  H    0.156004
    37  C   -0.543168
    38  H    0.168296
    39  H    0.156006
    40  H    0.168264
 Sum of Mulliken charges =  -0.00000

 Dipole moment (field-independent basis, Debye):
    X=             -0.0001    Y=              0.0002    Z=              0.3567  Tot=              0.3567
 Quadrupole moment (field-independent basis, Debye-Ang):
   XX=            -96.8561   YY=           -108.8872   ZZ=           -115.1139
   XY=              4.5562   XZ=              0.0004   YZ=             -0.0001

  Exact polarizability:     261.017      -2.165     273.431       0.005       0.003     196.825
 Approx polarizability:     335.599      -6.312     347.614       0.007       0.005     255.813

                      1                      2                      3
                      A                      A                      A
 Frequencies --     27.8928                49.0183                65.3084
 Red. masses --      4.1811                 3.5554                 3.8400
 Frc consts  --      0.0019                 0.0050                 0.0096
 IR Inten    --      0.2957                 2.8693                 0.0567

                      4                      5                      6
                      A                      A                      A
 Frequencies --     71.6082                83.2979                87.5163
 Red. masses --      3.1219                 2.8265                 2.4545
 Frc consts  --      0.0094                 0.0116                 0.0111
 IR Inten    --      1.5431                 5.1607                 1.3842

                      7                      8                      9
                      A                      A                      A
 Frequencies --    105.6213               116.9779               120.3422
 Red. masses --      1.0672                 1.0514                 1.3789
 Frc consts  --      0.0070                 0.0085                 0.0118
 IR Inten    --      0.0742                 0.0109                 6.3446

                     10                     11                     12
                      A                      A                      A
 Frequencies --    135.8205               139.9503               182.1626
 Red. masses --      1.8545                 3.2886                 3.2131
 Frc consts  --      0.0202                 0.0379                 0.0628
 IR Inten    --      0.0071                 1.7768                 0.0039

                     13                     14                     15
                      A                      A                      A
 Frequencies --    185.2388               194.3309               205.2581
 Red. masses --      2.5926                 1.5984                 1.9212
 Frc consts  --      0.0524                 0.0356                 0.0477
 IR Inten    --      0.1399                 0.5429                 6.0762

                     16                     17                     18
                      A                      A                      A
 Frequencies --    233.8917               265.1849               275.2249
 Red. masses --      4.2202                 3.4569                 3.6140
 Frc consts  --      0.1360                 0.1432                 0.1613
 IR Inten    --      2.1832                 2.2174                 1.3688

                     19                     20                     21
                      A                      A                      A
 Frequencies --    329.2470               336.8778               360.1108
 Red. masses --      3.1520                 3.7310                 3.7857
 Frc consts  --      0.2013                 0.2495                 0.2892
 IR Inten    --      0.1740                 0.3100                 2.0041

                     22                     23                     24
                      A                      A                      A
 Frequencies --    366.0066               385.5672               439.6575
 Red. masses --      4.5324                 3.5200                 3.9836
 Frc consts  --      0.3577                 0.3083                 0.4537
 IR Inten    --      1.6754                 2.6944                 2.9191

                     25                     26                     27
                      A                      A                      A
 Frequencies --    485.6317               490.9994               528.2234
 Red. masses --      3.7739                 3.8502                 4.9789
 Frc consts  --      0.5244                 0.5469                 0.8185
 IR Inten    --      3.2414                 6.6437                 0.6781

                     28                     29                     30
                      A                      A                      A
 Frequencies --    549.1881               577.6730               582.1385
 Red. masses --      4.5412                 3.8428                 3.7703
 Frc consts  --      0.8070                 0.7556                 0.7528
 IR Inten    --      0.0526                 9.5574                 0.0426

                     31                     32                     33
                      A                      A                      A
 Frequencies --    589.5027               591.7197               642.2543
 Red. masses --      4.1234                 4.1840                 5.0556
 Frc consts  --      0.8443                 0.8631                 1.2287
 IR Inten    --      0.3333                 3.0762                13.6670

                     34                     35                     36
                      A                      A                      A
 Frequencies --    704.1078               751.0446               758.7828
 Red. masses --      4.1582                 4.9579                 2.5817
 Frc consts  --      1.2146                 1.6477                 0.8758
 IR Inten    --      0.0186                 1.7380                 7.0515

                     37                     38                     39
                      A                      A                      A
 Frequencies --    769.4572               795.2286               801.8537
 Red. masses --      1.8160                 2.1946                 3.0871
 Frc consts  --      0.6335                 0.8177                 1.1695
 IR Inten    --     34.6830                 8.2852                19.8930

                     40                     41                     42
                      A                      A                      A
 Frequencies --    803.0556               891.1219               891.1941
 Red. masses --      2.2658                 1.3004                 1.2898
 Frc consts  --      0.8609                 0.6084                 0.6036
 IR Inten    --     31.1721                 0.0587                 5.8137

                     43                     44                     45
                      A                      A                      A
 Frequencies --    901.2743               902.8940               913.5586
 Red. masses --      1.5412                 1.6729                 1.7372
 Frc consts  --      0.7376                 0.8035                 0.8542
 IR Inten    --     16.5522                21.1163                24.7912

                     46                     47                     48
                      A                      A                      A
 Frequencies --    919.3241               965.9310               966.2883
 Red. masses --      1.8714                 1.2747                 1.2653
 Frc consts  --      0.9319                 0.7007                 0.6961
 IR Inten    --     13.2476                 0.1231                 0.4514

                     49                     50                     51
                      A                      A                      A
 Frequencies --    990.4415               992.5619              1020.1959
 Red. masses --      1.9283                 1.9908                 7.2245
 Frc consts  --      1.1145                 1.1556                 4.4302
 IR Inten    --      4.0659                 0.4335                15.8227

                     52                     53                     54
                      A                      A                      A
 Frequencies --   1056.0351              1056.2050              1071.7899
 Red. masses --      2.0783                 1.9981                 1.5383
 Frc consts  --      1.3656                 1.3133                 1.0411
 IR Inten    --      0.6617                 6.4498                 6.6474

                     55                     56                     57
                      A                      A                      A
 Frequencies --   1073.4298              1106.0496              1106.2648
 Red. masses --      1.5525                 1.6426                 1.6355
 Frc consts  --      1.0540                 1.1839                 1.1793
 IR Inten    --      4.5943                 0.2549                 3.5773

                     58                     59                     60
                      A                      A                      A
 Frequencies --   1120.9996              1135.4224              1161.9432
 Red. masses --      1.8033                 1.5720                 2.1454
 Frc consts  --      1.3352                 1.1941                 1.7066
 IR Inten    --      0.1308                 4.9486                 9.7802

                     61                     62                     63
                      A                      A                      A
 Frequencies --   1161.9727              1195.9852              1196.0345
 Red. masses --      2.1610                 1.1870                 1.1871
 Frc consts  --      1.7190                 1.0004                 1.0005
 IR Inten    --     10.4319                 1.0596                 0.0789

                     64                     65                     66
                      A                      A                      A
 Frequencies --   1257.2193              1270.1675              1271.4459
 Red. masses --      3.5086                 2.6740                 2.7852
 Frc consts  --      3.2674                 2.5417                 2.6528
 IR Inten    --      0.0075                21.3260                20.2915

                     67                     68                     69
                      A                      A                      A
 Frequencies --   1275.1968              1289.7391              1326.2324
 Red. masses --      2.4589                 2.3742                 7.5971
 Frc consts  --      2.3558                 2.3268                 7.8730
 IR Inten    --      4.0518                 1.7431                 1.6160

                     70                     71                     72
                      A                      A                      A
 Frequencies --   1327.1363              1398.4166              1399.5531
 Red. masses --      7.6248                 1.2760                 1.2713
 Frc consts  --      7.9124                 1.4702                 1.4671
 IR Inten    --      0.4181                 5.1582                 2.4360

                     73                     74                     75
                      A                      A                      A
 Frequencies --   1431.5469              1432.8481              1439.6035
 Red. masses --      1.3761                 1.3650                 1.2433
 Frc consts  --      1.6616                 1.6512                 1.5181
 IR Inten    --     11.5187                11.2655                 0.1557

                     76                     77                     78
                      A                      A                      A
 Frequencies --   1443.2302              1469.0088              1490.9750
 Red. masses --      1.2436                 2.4234                 1.4989
 Frc consts  --      1.5262                 3.0812                 1.9631
 IR Inten    --      0.3944                 0.3769                 4.1269

                     79                     80                     81
                      A                      A                      A
 Frequencies --   1494.0044              1495.6100              1496.3734
 Red. masses --      1.1851                 1.2754                 1.8268
 Frc consts  --      1.5585                 1.6809                 2.4100
 IR Inten    --     21.2183                 1.6521                52.4172

                     82                     83                     84
                      A                      A                      A
 Frequencies --   1498.2062              1498.2861              1506.7928
 Red. masses --      1.0908                 1.0620                 2.2985
 Frc consts  --      1.4426                 1.4046                 3.0747
 IR Inten    --     10.5478                10.5963                 6.2932

                     85                     86                     87
                      A                      A                      A
 Frequencies --   1507.3857              1509.9220              1522.3989
 Red. masses --      1.0459                 1.0610                 1.1887
 Frc consts  --      1.4001                 1.4252                 1.6233
 IR Inten    --      5.3393                13.7864                30.0080

                     88                     89                     90
                      A                      A                      A
 Frequencies --   1526.2744              1626.5850              1627.2847
 Red. masses --      1.4813                 6.2626                 6.4735
 Frc consts  --      2.0331                 9.7624                10.0999
 IR Inten    --      4.3500                43.1409                17.8956

                     91                     92                     93
                      A                      A                      A
 Frequencies --   1637.2928              1640.9855              1740.5793
 Red. masses --      5.7256                 5.7877                 7.5318
 Frc consts  --      9.0432                 9.1825                13.4442
 IR Inten    --     10.7426                 1.6177               256.9230

                     94                     95                     96
                      A                      A                      A
 Frequencies --   1742.2056              3019.2223              3019.4895
 Red. masses --      7.5470                 1.0822                 1.0821
 Frc consts  --     13.4966                 5.8123                 5.8129
 IR Inten    --     63.0085                71.6862                33.1714

                     97                     98                     99
                      A                      A                      A
 Frequencies --   3041.7433              3041.8310              3047.9235
 Red. masses --      1.0416                 1.0417                 1.0373
 Frc consts  --      5.6783                 5.6791                 5.6777
 IR Inten    --     43.9717                 6.1042                20.4255

                    100                    101                    102
                      A                      A                      A
 Frequencies --   3048.4245              3089.8553              3089.9101
 Red. masses --      1.0373                 1.0995                 1.0995
 Frc consts  --      5.6795                 6.1848                 6.1851
 IR Inten    --     43.2478                15.0593                15.0107

                    103                    104                    105
                      A                      A                      A
 Frequencies --   3101.8023              3102.2195              3124.6152
 Red. masses --      1.1003                 1.1002                 1.1021
 Frc consts  --      6.2370                 6.2381                 6.3399
 IR Inten    --     21.6508                12.1545                52.3824

                    106                    107                    108
                      A                      A                      A
 Frequencies --   3124.6834              3154.5877              3154.6089
 Red. masses --      1.1021                 1.1009                 1.1009
 Frc consts  --      6.3401                 6.4548                 6.4549
 IR Inten    --     11.5579                20.0482                 6.5790

                    109                    110                    111
                      A                      A                      A
 Frequencies --   3179.4159              3179.5029              3192.7514
 Red. masses --      1.0862                 1.0862                 1.0907
 Frc consts  --      6.4695                 6.4695                 6.5508
 IR Inten    --      4.3310                 5.2505                38.8342

                    112                    113                    114
                      A                      A                      A
 Frequencies --   3192.7875              3206.1415              3206.4008
 Red. masses --      1.0907                 1.0961                 1.0960
 Frc consts  --      6.5509                 6.6382                 6.6388
 IR Inten    --     19.7874                56.6427                 0.7874

 - Thermochemistry -
 -------------------
 Temperature   298.150 Kelvin.  Pressure   1.00000 Atm.
 Atom     1 has atomic number  6 and mass  12.00000

 Molecular mass:   264.16265 amu.
 Principal axes and moments of inertia in atomic units:
                           1         2         3
     Eigenvalues --  4934.019305742.317206941.90281
           X            0.99262   0.12129   0.00000
           Y           -0.12129   0.99262  -0.00001
           Z           -0.00000   0.00001   1.00000
 This molecule is an asymmetric top.
 Rotational symmetry number  1.
 Warning -- assumption of classical behavior for rotation
           may cause significant error
 Rotational temperatures (Kelvin)      0.01755     0.01508     0.01248
 Rotational constants (GHZ):           0.36578     0.31429     0.25998
 Zero-point vibrational energy     878599.2 (Joules/Mol)
                                  209.99025 (Kcal/Mol)
 Warning -- explicit consideration of  32 degrees of freedom as
           vibrations may cause significant error
 Vibrational temperatures:     40.13    70.53    93.96   103.03   119.85
          (Kelvin)            125.92   151.97   168.31   173.15   195.42
                              201.36   262.09   266.52   279.60   295.32
                              336.52   381.54   395.99   473.71   484.69
                              518.12   526.60   554.75   632.57   698.72
                              706.44   760.00   790.16   831.14   837.57
                              848.16   851.35   924.06  1013.05  1080.59
                             1091.72  1107.08  1144.16  1153.69  1155.42
                             1282.13  1282.23  1296.73  1299.06  1314.41
                             1322.70  1389.76  1390.27  1425.02  1428.08
                             1467.83  1519.40  1519.64  1542.07  1544.43
                             1591.36  1591.67  1612.87  1633.62  1671.78
                             1671.82  1720.76  1720.83  1808.86  1827.49
                             1829.33  1834.72  1855.65  1908.15  1909.45
                             2012.01  2013.64  2059.68  2061.55  2071.27
                             2076.49  2113.58  2145.18  2149.54  2151.85
                             2152.95  2155.58  2155.70  2167.94  2168.79
                             2172.44  2190.39  2195.97  2340.29  2341.30
                             2355.70  2361.01  2504.31  2506.65  4343.99
                             4344.37  4376.39  4376.52  4385.28  4386.00
                             4445.61  4445.69  4462.80  4463.40  4495.62
                             4495.72  4538.75  4538.78  4574.47  4574.60
                             4593.66  4593.71  4612.92  4613.30

 Zero-point correction=                           0.334641 (Hartree/Particle)
 Thermal correction to Energy=                    0.354821
 Thermal correction to Enthalpy=                  0.355765
 Thermal correction to Gibbs Free Energy=         0.285605
 Sum of electronic and zero-point Energies=           -807.135402
 Sum of electronic and thermal Energies=              -807.115222
 Sum of electronic and thermal Enthalpies=            -807.114278
 Sum of electronic and thermal Free Energies=         -807.184438

                     E (Thermal)             CV                S
                      KCal/Mol        Cal/Mol-Kelvin    Cal/Mol-Kelvin
 Total                  222.653             75.221            147.665
 Electronic               0.000              0.000              0.000
 Translational            0.889              2.981             42.614
 Rotational               0.889              2.981             33.641
 Vibrational            220.876             69.260             71.410
 Vibration     1          0.593              1.984              5.974
 Vibration     2          0.595              1.978              4.857
 Vibration     3          0.597              1.971              4.290
 Vibration     4          0.598              1.968              4.109
 Vibration     5          0.600              1.961              3.812
 Vibration     6          0.601              1.958              3.715
 Vibration     7          0.605              1.945              3.348
 Vibration     8          0.608              1.935              3.150
 Vibration     9          0.609              1.932              3.095
 Vibration    10          0.614              1.918              2.862
 Vibration    11          0.615              1.913              2.805
 Vibration    12          0.630              1.864              2.306
 Vibration    13          0.631              1.860              2.275
 Vibration    14          0.635              1.848              2.186
 Vibration    15          0.640              1.832              2.085
 Vibration    16          0.654              1.789              1.849
 Vibration    17          0.671              1.737              1.627
 Vibration    18          0.677              1.719              1.563
 Vibration    19          0.712              1.617              1.264
 Vibration    20          0.718              1.602              1.227
 Vibration    21          0.735              1.554              1.122
 Vibration    22          0.739              1.542              1.096
 Vibration    23          0.754              1.501              1.017
 Vibration    24          0.800              1.384              0.828
 Vibration    25          0.842              1.282              0.695
 Vibration    26          0.847              1.270              0.681
 Vibration    27          0.883              1.188              0.591
 Vibration    28          0.904              1.141              0.546
 Vibration    29          0.934              1.080              0.490
 Vibration    30          0.939              1.070              0.481
 Vibration    31          0.947              1.054              0.468
 Vibration    32          0.949              1.049              0.464

 Optimization completed.
    -- Stationary point found.
 Normal termination of Gaussian 16 at Mon Sep 12 11:38:59 2022.
