 Gaussian 16, Revision C.01,
 Gaussian 16:  ES64L-G16RevC.01  3-Jul-2019

 ----------------------------------------------------
 # opt freq b3lyp/6-31g(d) scrf=(smd,solvent=toluene)
 ----------------------------------------------------

 ---------
 CH2NCHCH3
 ---------
 Symbolic Z-matrix:
 Charge =  0 Multiplicity = 1

 SCF Done:  E(RB3LYP) =  -345.172950075     A.U. after   14 cycles
 SCF Done:  E(RB3LYP) =  -345.207451975     A.U. after   14 cycles
 SCF Done:  E(RB3LYP) =  -345.250757509     A.U. after   14 cycles
 SCF Done:  E(RB3LYP) =  -345.265026988     A.U. after   12 cycles
 SCF Done:  E(RB3LYP) =  -345.289585687     A.U. after   13 cycles
 SCF Done:  E(RB3LYP) =  -345.295702989     A.U. after   12 cycles
 SCF Done:  E(RB3LYP) =  -345.303359069     A.U. after   12 cycles
 SCF Done:  E(RB3LYP) =  -345.311747322     A.U. after   13 cycles
 SCF Done:  E(RB3LYP) =  -345.314115653     A.U. after   12 cycles
 SCF Done:  E(RB3LYP) =  -345.309696008     A.U. after   13 cycles
 SCF Done:  E(RB3LYP) =  -345.342045119     A.U. after   11 cycles
 SCF Done:  E(RB3LYP) =  -345.342766735     A.U. after   11 cycles
 SCF Done:  E(RB3LYP) =  -345.343135798     A.U. after   11 cycles
 SCF Done:  E(RB3LYP) =  -345.343132786     A.U. after   10 cycles
 SCF Done:  E(RB3LYP) =  -345.343157319     A.U. after   11 cycles
 SCF Done:  E(RB3LYP) =  -345.343207638     A.U. after   10 cycles
 SCF Done:  E(RB3LYP) =  -345.343208224     A.U. after    8 cycles
 SCF Done:  E(RB3LYP) =  -345.343208383     A.U. after    7 cycles
 SCF Done:  E(RB3LYP) =  -345.343208410     A.U. after    7 cycles
 Optimization completed.
    -- Stationary point found.
 Normal termination of Gaussian 16 at Wed Sep 29 04:41:26 2021.

 --------------------------------------------------------------------
 #N Geom=AllCheck Guess=TCheck SCRF=Check GenChk RB3LYP/6-31G(d) Freq
 --------------------------------------------------------------------

 Structure from the checkpoint file:  "CH2NCHCH3.chk"
 ---------
 CH2NCHCH3
 ---------
 Charge =  0 Multiplicity = 1

                         Standard orientation:
 ---------------------------------------------------------------------
 Center     Atomic      Atomic             Coordinates (Angstroms)
 Number     Number       Type             X           Y           Z
 ---------------------------------------------------------------------
      1          6           0        0.644584   -1.371333   -0.368133
      2          1           0        0.401123   -1.615101   -1.410371
      3          1           0        1.321070   -2.154630    0.016324
      4          6           0       -0.661174   -1.392452    0.442200
      5          1           0       -1.005593   -2.433821    0.494898
      6          1           0       -0.455840   -1.051753    1.471868
      7          7           0       -1.696001   -0.610348   -0.214932
      8          7           0        1.250759   -0.048961   -0.342757
      9          6           0        2.457555    0.048151    0.043046
     10          1           0        3.040899   -0.838634    0.348013
     11          6           0       -2.132747    0.423992    0.379568
     12          1           0       -1.755614    0.722751    1.372527
     13          6           0        3.176206    1.361743    0.109130
     14          1           0        3.532413    1.555829    1.129908
     15          1           0        4.064432    1.347344   -0.536956
     16          1           0        2.518137    2.176744   -0.204196
     17          6           0       -3.182957    1.308771   -0.219935
     18          1           0       -3.496490    0.927954   -1.195732
     19          1           0       -4.057681    1.374377    0.441271
     20          1           0       -2.798968    2.330882   -0.338978
 ---------------------------------------------------------------------

 SCF Done:  E(RB3LYP) =  -345.343208410     A.U. after    1 cycles

 The electronic state is 1-A.
 Alpha  occ. eigenvalues --  -14.31807 -14.31462 -10.22368 -10.21954 -10.20226
 Alpha  occ. eigenvalues --  -10.20167 -10.17839 -10.17486  -0.91906  -0.90079
 Alpha  occ. eigenvalues --   -0.76484  -0.73012  -0.69243  -0.61437  -0.55192
 Alpha  occ. eigenvalues --   -0.54344  -0.48495  -0.47641  -0.44047  -0.42988
 Alpha  occ. eigenvalues --   -0.41797  -0.41134  -0.39575  -0.37953  -0.37604
 Alpha  occ. eigenvalues --   -0.35681  -0.34978  -0.29098  -0.27007  -0.24470
 Alpha  occ. eigenvalues --   -0.24231
 Alpha virt. eigenvalues --    0.00559   0.01810   0.12034   0.12454   0.12714
 Alpha virt. eigenvalues --    0.13390   0.14970   0.16946   0.17292   0.17738
 Alpha virt. eigenvalues --    0.17805   0.18362   0.18711   0.20186   0.22807

 Mulliken charges:
               1
     1  C   -0.150203
     2  H    0.163687
     3  H    0.123079
     4  C   -0.148595
     5  H    0.150582
     6  H    0.124439
     7  N   -0.361919
     8  N   -0.359575
     9  C    0.095760
    10  H    0.118518
    11  C    0.108453
    12  H    0.120060
    13  C   -0.500961
    14  H    0.166966
    15  H    0.169245
    16  H    0.174173
    17  C   -0.502163
    18  H    0.172799
    19  H    0.164946
    20  H    0.170709
 Sum of Mulliken charges =   0.00000

 Dipole moment (field-independent basis, Debye):
    X=              1.4655    Y=              0.2261    Z=              1.8134  Tot=              2.3425
 Quadrupole moment (field-independent basis, Debye-Ang):
   XX=            -42.6769   YY=            -46.7890   ZZ=            -50.2677
   XY=             -3.1205   XZ=             -1.3657   YZ=              0.0220

  Exact polarizability:     109.071      -5.572      96.035       6.607       4.243      69.566
 Approx polarizability:     121.425      -7.660     115.253       9.631       9.649      90.596

                      1                      2                      3
                      A                      A                      A
 Frequencies --     45.1792                72.8851                89.9394
 Red. masses --      3.3552                 1.9062                 1.9306
 Frc consts  --      0.0040                 0.0060                 0.0092
 IR Inten    --      2.2550                13.9527                 2.2457

                      4                      5                      6
                      A                      A                      A
 Frequencies --    166.6986               183.2281               207.2316
 Red. masses --      1.6825                 1.5718                 1.6924
 Frc consts  --      0.0275                 0.0311                 0.0428
 IR Inten    --      0.9421                 0.4245                 1.3611

                      7                      8                      9
                      A                      A                      A
 Frequencies --    210.5262               296.3741               315.0186
 Red. masses --      1.8879                 2.6240                 3.0540
 Frc consts  --      0.0493                 0.1358                 0.1786
 IR Inten    --      1.2692                 8.4626                 3.3983

                     10                     11                     12
                      A                      A                      A
 Frequencies --    373.9089               512.6110               535.8389
 Red. masses --      2.5249                 3.0922                 2.6650
 Frc consts  --      0.2080                 0.4787                 0.4508
 IR Inten    --      2.5426                 5.3491                14.2893

                     13                     14                     15
                      A                      A                      A
 Frequencies --    549.3843               846.1906               870.4064
 Red. masses --      2.2753                 1.6084                 1.9248
 Frc consts  --      0.4046                 0.6786                 0.8592
 IR Inten    --     15.2111                16.5026                12.8611

                     16                     17                     18
                      A                      A                      A
 Frequencies --    894.0502               898.8958               952.9071
 Red. masses --      1.2070                 1.3859                 2.1162
 Frc consts  --      0.5685                 0.6598                 1.1322
 IR Inten    --      4.0845                 4.3656                 1.9592

                     19                     20                     21
                      A                      A                      A
 Frequencies --    986.4153              1088.9210              1092.4311
 Red. masses --      1.8506                 2.9749                 3.0375
 Frc consts  --      1.0609                 2.0783                 2.1358
 IR Inten    --      2.5180                12.5847                12.4143

                     22                     23                     24
                      A                      A                      A
 Frequencies --   1104.4195              1108.8775              1114.6185
 Red. masses --      1.7871                 1.7002                 1.8251
 Frc consts  --      1.2843                 1.2318                 1.3359
 IR Inten    --      0.9474                 0.2637                 0.3025

                     25                     26                     27
                      A                      A                      A
 Frequencies --   1165.3481              1178.0626              1254.1948
 Red. masses --      2.1318                 2.2730                 1.1534
 Frc consts  --      1.7057                 1.8586                 1.0690
 IR Inten    --     18.3730                 9.0699                 2.9060

                     28                     29                     30
                      A                      A                      A
 Frequencies --   1298.1295              1381.4440              1384.4946
 Red. masses --      1.1144                 1.2768                 1.2409
 Frc consts  --      1.1064                 1.4357                 1.4014
 IR Inten    --      2.5128                10.8425                29.0900

                     31                     32                     33
                      A                      A                      A
 Frequencies --   1410.6823              1414.1281              1438.4358
 Red. masses --      1.2635                 1.2560                 1.3818
 Frc consts  --      1.4814                 1.4799                 1.6846
 IR Inten    --      7.2765                17.3537                 9.4730

                     34                     35                     36
                      A                      A                      A
 Frequencies --   1440.2884              1497.4413              1498.0411
 Red. masses --      1.4027                 1.0555                 1.0580
 Frc consts  --      1.7144                 1.3945                 1.3989
 IR Inten    --     21.4391                19.0186                22.0773

                     37                     38                     39
                      A                      A                      A
 Frequencies --   1500.6213              1501.0917              1504.0276
 Red. masses --      1.0459                 1.0463                 1.1000
 Frc consts  --      1.3877                 1.3891                 1.4661
 IR Inten    --      7.1739                13.8267                19.5807

                     40                     41                     42
                      A                      A                      A
 Frequencies --   1515.1768              1766.7127              1769.5038
 Red. masses --      1.1030                 7.6600                 7.7021
 Frc consts  --      1.4920                14.0867                14.2089
 IR Inten    --     10.1721               119.5107               101.0591

                     43                     44                     45
                      A                      A                      A
 Frequencies --   2973.8341              2981.8502              2988.7469
 Red. masses --      1.0687                 1.0707                 1.0814
 Frc consts  --      5.5684                 5.6093                 5.6915
 IR Inten    --     37.7030                45.8510               139.7083

                     46                     47                     48
                      A                      A                      A
 Frequencies --   3000.1772              3041.6704              3042.0387
 Red. masses --      1.0833                 1.0391                 1.0394
 Frc consts  --      5.7450                 5.6643                 5.6671
 IR Inten    --     86.2616                20.7647                17.0834

                     49                     50                     51
                      A                      A                      A
 Frequencies --   3063.2319              3073.2410              3091.3806
 Red. masses --      1.0928                 1.0936                 1.0999
 Frc consts  --      6.0415                 6.0854                 6.1929
 IR Inten    --     42.6666                44.4728                18.6272

                     52                     53                     54
                      A                      A                      A
 Frequencies --   3091.9765              3149.5205              3149.6127
 Red. masses --      1.0999                 1.1012                 1.1012
 Frc consts  --      6.1952                 6.4358                 6.4361
 IR Inten    --     19.5162                19.1128                16.2882

 - Thermochemistry -
 -------------------
 Temperature   298.150 Kelvin.  Pressure   1.00000 Atm.
 Atom     1 has atomic number  6 and mass  12.00000

 Molecular mass:   112.10005 amu.
 Principal axes and moments of inertia in atomic units:
                           1         2         3
     Eigenvalues --   526.591611959.313092353.50321
           X            0.99996  -0.00803   0.00311
           Y            0.00804   0.99996  -0.00441
           Z           -0.00307   0.00443   0.99999
 This molecule is an asymmetric top.
 Rotational symmetry number  1.
 Warning -- assumption of classical behavior for rotation
           may cause significant error
 Rotational temperatures (Kelvin)      0.16448     0.04421     0.03680
 Rotational constants (GHZ):           3.42721     0.92111     0.76683
 Zero-point vibrational energy     461053.1 (Joules/Mol)
                                  110.19434 (Kcal/Mol)
 Warning -- explicit consideration of  13 degrees of freedom as
           vibrations may cause significant error
 Vibrational temperatures:     65.00   104.87   129.40   239.84   263.62
          (Kelvin)            298.16   302.90   426.42   453.24   537.97
                              737.53   770.95   790.44  1217.48  1252.32
                             1286.34  1293.31  1371.02  1419.23  1566.71
                             1571.76  1589.01  1595.43  1603.69  1676.68
                             1694.97  1804.51  1867.72  1987.59  1991.98
                             2029.66  2034.61  2069.59  2072.25  2154.48
                             2155.35  2159.06  2159.74  2163.96  2180.00
                             2541.91  2545.92  4278.68  4290.22  4300.14
                             4316.59  4376.29  4376.82  4407.31  4421.71
                             4447.81  4448.66  4531.46  4531.59

 Zero-point correction=                           0.175606 (Hartree/Particle)
 Thermal correction to Energy=                    0.185468
 Thermal correction to Enthalpy=                  0.186412
 Thermal correction to Gibbs Free Energy=         0.139842
 Sum of electronic and zero-point Energies=           -345.167603
 Sum of electronic and thermal Energies=              -345.157741
 Sum of electronic and thermal Enthalpies=            -345.156797
 Sum of electronic and thermal Free Energies=         -345.203366

                     E (Thermal)             CV                S
                      KCal/Mol        Cal/Mol-Kelvin    Cal/Mol-Kelvin
 Total                  116.383             33.881             98.014
 Electronic               0.000              0.000              0.000
 Translational            0.889              2.981             40.058
 Rotational               0.889              2.981             29.275
 Vibrational            114.605             27.919             28.680
 Vibration     1          0.595              1.979              5.018
 Vibration     2          0.599              1.967              4.074
 Vibration     3          0.602              1.956              3.661
 Vibration     4          0.624              1.883              2.472
 Vibration     5          0.631              1.863              2.295
 Vibration     6          0.641              1.830              2.068
 Vibration     7          0.643              1.825              2.039
 Vibration     8          0.690              1.680              1.437
 Vibration     9          0.702              1.645              1.336
 Vibration    10          0.745              1.526              1.064
 Vibration    11          0.868              1.222              0.627
 Vibration    12          0.891              1.171              0.574
 Vibration    13          0.905              1.141              0.545

 Optimization completed.
    -- Stationary point found.
 Normal termination of Gaussian 16 at Wed Sep 29 04:43:23 2021.
