 Gaussian 16, Revision C.01,
 Gaussian 16:  ES64L-G16RevC.01  3-Jul-2019

 -------------------------------------------------
 # opt freq b3lyp/6-31g scrf=(smd,solvent=toluene)
 -------------------------------------------------

 -------------------
 Title Card Required
 -------------------
 Symbolic Z-matrix:
 Charge =  0 Multiplicity = 1

 SCF Done:  E(RB3LYP) =  -807.143267972     A.U. after   15 cycles
 SCF Done:  E(RB3LYP) =  -807.179971553     A.U. after   14 cycles
 SCF Done:  E(RB3LYP) =  -807.189776908     A.U. after   14 cycles
 SCF Done:  E(RB3LYP) =  -807.218164615     A.U. after   13 cycles
 SCF Done:  E(RB3LYP) =  -807.206079891     A.U. after   14 cycles
 SCF Done:  E(RB3LYP) =  -807.228664230     A.U. after   12 cycles
 SCF Done:  E(RB3LYP) =  -807.233294212     A.U. after   13 cycles
 SCF Done:  E(RB3LYP) =  -807.235578991     A.U. after   12 cycles
 SCF Done:  E(RB3LYP) =  -807.236614960     A.U. after   12 cycles
 SCF Done:  E(RB3LYP) =  -807.238652163     A.U. after   14 cycles
 SCF Done:  E(RB3LYP) =  -807.245827651     A.U. after    9 cycles
 SCF Done:  E(RB3LYP) =  -807.245848492     A.U. after   10 cycles
 SCF Done:  E(RB3LYP) =  -807.245848586     A.U. after    9 cycles
 SCF Done:  E(RB3LYP) =  -807.245852523     A.U. after    9 cycles
 SCF Done:  E(RB3LYP) =  -807.245852992     A.U. after    8 cycles
 SCF Done:  E(RB3LYP) =  -807.245853135     A.U. after    8 cycles
 SCF Done:  E(RB3LYP) =  -807.245853388     A.U. after    7 cycles
 SCF Done:  E(RB3LYP) =  -807.245853528     A.U. after    7 cycles
 SCF Done:  E(RB3LYP) =  -807.245853588     A.U. after    6 cycles
 Optimization completed.
    -- Stationary point found.
 Normal termination of Gaussian 16 at Wed Sep 29 03:00:13 2021.

 -----------------------------------------------------------------
 #N Geom=AllCheck Guess=TCheck SCRF=Check GenChk RB3LYP/6-31G Freq
 -----------------------------------------------------------------

 Structure from the checkpoint file:  "benzNCHCH3benz.chk"
 -------------------
 Title Card Required
 -------------------
 Charge =  0 Multiplicity = 1

                         Standard orientation:
 ---------------------------------------------------------------------
 Center     Atomic      Atomic             Coordinates (Angstroms)
 Number     Number       Type             X           Y           Z
 ---------------------------------------------------------------------
      1          6           0        1.603425    1.908805   -1.106538
      2          6           0        1.146223    1.253810    0.050665
      3          6           0        2.085119    0.840283    1.009707
      4          6           0        3.452871    1.065460    0.814974
      5          6           0        3.900051    1.712088   -0.342853
      6          6           0        2.970289    2.134206   -1.301778
      7          1           0        0.880298    2.258497   -1.834550
      8          1           0        1.744768    0.335973    1.909360
      9          1           0        4.164955    0.738692    1.566744
     10          1           0        4.960442    1.889801   -0.494495
     11          1           0        3.308863    2.643897   -2.199059
     12          6           0       -0.338206    0.984207    0.262982
     13          1           0       -0.510084    0.757330    1.323037
     14          6           0       -0.848674   -0.263905   -0.547325
     15          1           0       -0.684672   -0.041563   -1.613608
     16          6           0       -0.108796   -1.542535   -0.179681
     17          6           0        0.909197   -2.036950   -1.010983
     18          6           0       -0.424910   -2.245813    0.996324
     19          6           0        1.605017   -3.203333   -0.672233
     20          1           0        1.160057   -1.505003   -1.923917
     21          6           0        0.269712   -3.411938    1.335131
     22          1           0       -1.230373   -1.886611    1.627187
     23          6           0        1.288377   -3.893873    0.503175
     24          1           0        2.389636   -3.571430   -1.326320
     25          1           0        0.012596   -3.946673    2.244768
     26          1           0        1.825786   -4.799970    0.766037
     27          7           0       -1.109698    2.152223   -0.213428
     28          7           0       -2.287149   -0.425116   -0.246926
     29          6           0       -1.936125    2.772591    0.550369
     30          1           0       -2.449153    3.622835    0.094657
     31          6           0       -3.138867   -0.357906   -1.203422
     32          1           0       -2.821490   -0.182690   -2.242209
     33          6           0       -2.295852    2.474382    1.987490
     34          1           0       -3.060140    3.172224    2.340208
     35          1           0       -2.685854    1.454440    2.090163
     36          1           0       -1.426442    2.564359    2.651856
     37          6           0       -4.610020   -0.512792   -0.975267
     38          1           0       -5.149462    0.385228   -1.305661
     39          1           0       -5.006124   -1.354074   -1.559964
     40          1           0       -4.818660   -0.685731    0.083822
 ---------------------------------------------------------------------

 SCF Done:  E(RB3LYP) =  -807.245853588     A.U. after    1 cycles

 The electronic state is 1-A.
 Alpha  occ. eigenvalues --  -14.32602 -14.32203 -10.22789 -10.22561 -10.21697
 Alpha  occ. eigenvalues --  -10.21509 -10.18991 -10.18879 -10.18091 -10.18073
 Alpha  occ. eigenvalues --  -10.18018 -10.18002 -10.17970 -10.17963 -10.17922
 Alpha  occ. eigenvalues --  -10.17885 -10.17754 -10.17576 -10.17459 -10.17429
 Alpha  occ. eigenvalues --   -0.93774  -0.91316  -0.85319  -0.84804  -0.79111
 Alpha  occ. eigenvalues --   -0.75586  -0.74018  -0.73911  -0.73229  -0.72483
 Alpha  occ. eigenvalues --   -0.69493  -0.64355  -0.60480  -0.60108  -0.58985
 Alpha  occ. eigenvalues --   -0.57760  -0.55257  -0.53892  -0.51196  -0.50626
 Alpha  occ. eigenvalues --   -0.49150  -0.47324  -0.45424  -0.45242  -0.44466
 Alpha  occ. eigenvalues --   -0.43671  -0.43148  -0.42660  -0.42084  -0.41517
 Alpha  occ. eigenvalues --   -0.41309  -0.41271  -0.40884  -0.39049  -0.38855
 Alpha  occ. eigenvalues --   -0.37486  -0.36956  -0.35550  -0.34935  -0.34383
 Alpha  occ. eigenvalues --   -0.33528  -0.33335  -0.33195  -0.29332  -0.28372
 Alpha  occ. eigenvalues --   -0.24682  -0.24599  -0.24130  -0.23786  -0.23729
 Alpha  occ. eigenvalues --   -0.23278
 Alpha virt. eigenvalues --   -0.01042  -0.00155   0.00531   0.00681   0.01008
 Alpha virt. eigenvalues --    0.01662   0.10088   0.10786   0.11045   0.11956
 Alpha virt. eigenvalues --    0.12461   0.13550   0.14653   0.15396   0.15532

 Mulliken charges:
               1
     1  C   -0.147886
     2  C    0.121524
     3  C   -0.157499
     4  C   -0.144339
     5  C   -0.132360
     6  C   -0.147204
     7  H    0.149785
     8  H    0.138644
     9  H    0.135740
    10  H    0.134727
    11  H    0.134849
    12  C   -0.113616
    13  H    0.138197
    14  C   -0.112972
    15  H    0.130690
    16  C    0.121318
    17  C   -0.155597
    18  C   -0.151251
    19  C   -0.143951
    20  H    0.140600
    21  C   -0.146010
    22  H    0.147942
    23  C   -0.132324
    24  H    0.136616
    25  H    0.135256
    26  H    0.135366
    27  N   -0.338116
    28  N   -0.337515
    29  C    0.040441
    30  H    0.147065
    31  C    0.081852
    32  H    0.132032
    33  C   -0.475970
    34  H    0.150763
    35  H    0.184963
    36  H    0.173069
    37  C   -0.464032
    38  H    0.162824
    39  H    0.163164
    40  H    0.163213
 Sum of Mulliken charges =  -0.00000

 Dipole moment (field-independent basis, Debye):
    X=             -1.3069    Y=             -0.0915    Z=              0.2965  Tot=              1.3432
 Quadrupole moment (field-independent basis, Debye-Ang):
   XX=           -104.1882   YY=           -117.7793   ZZ=           -109.6876
   XY=             -5.0928   XZ=              0.3455   YZ=              1.1786

  Exact polarizability:     269.756     -31.688     195.878     -13.623     -33.749     203.150
 Approx polarizability:     322.467     -42.853     232.353     -23.778     -57.908     297.639

                      1                      2                      3
                      A                      A                      A
 Frequencies --     24.9391                34.1582                41.0688
 Red. masses --      4.3799                 3.5109                 3.5454
 Frc consts  --      0.0016                 0.0024                 0.0035
 IR Inten    --      0.2252                 4.4699                 0.7333

                      4                      5                      6
                      A                      A                      A
 Frequencies --     46.3695                52.4845                54.4927
 Red. masses --      3.7340                 4.4320                 3.5639
 Frc consts  --      0.0047                 0.0072                 0.0062
 IR Inten    --      0.4736                 1.2706                 3.5664

                      7                      8                      9
                      A                      A                      A
 Frequencies --     84.3343                87.4560               129.6689
 Red. masses --      1.1208                 3.0572                 2.7112
 Frc consts  --      0.0047                 0.0138                 0.0269
 IR Inten    --      1.7566                 1.1746                 1.8519

                     10                     11                     12
                      A                      A                      A
 Frequencies --    149.6694               175.0574               205.6094
 Red. masses --      1.6518                 2.9870                 1.7273
 Frc consts  --      0.0218                 0.0539                 0.0430
 IR Inten    --      3.4733                 0.4871                 2.6048

                     13                     14                     15
                      A                      A                      A
 Frequencies --    212.4426               237.1796               242.6630
 Red. masses --      3.5495                 4.1139                 4.2048
 Frc consts  --      0.0944                 0.1364                 0.1459
 IR Inten    --      1.0767                 0.4890                 0.9331

                     16                     17                     18
                      A                      A                      A
 Frequencies --    287.5167               294.7622               356.7510
 Red. masses --      4.2133                 4.1008                 5.1475
 Frc consts  --      0.2052                 0.2099                 0.3860
 IR Inten    --      1.6653                 3.1276                 7.9360

                     19                     20                     21
                      A                      A                      A
 Frequencies --    378.5641               425.5253               426.9714
 Red. masses --      4.8162                 2.8706                 2.8723
 Frc consts  --      0.4067                 0.3062                 0.3085
 IR Inten    --      6.7078                 0.3278                 0.3052

                     22                     23                     24
                      A                      A                      A
 Frequencies --    459.6703               501.9903               525.5858
 Red. masses --      4.6319                 4.1106                 3.3068
 Frc consts  --      0.5766                 0.6103                 0.5382
 IR Inten    --      3.1089                 4.4281                 8.7100

                     25                     26                     27
                      A                      A                      A
 Frequencies --    541.4661               602.6750               629.0995
 Red. masses --      3.5764                 3.1682                 3.2198
 Frc consts  --      0.6178                 0.6780                 0.7508
 IR Inten    --      2.3069                 2.0550                58.0696

                     28                     29                     30
                      A                      A                      A
 Frequencies --    650.9749               651.7918               656.9341
 Red. masses --      6.1831                 6.2326                 5.6674
 Frc consts  --      1.5438                 1.5601                 1.4410
 IR Inten    --      1.9357                 0.8678                16.8432

                     31                     32                     33
                      A                      A                      A
 Frequencies --    679.1616               730.5318               731.4407
 Red. masses --      4.5012                 1.6684                 1.7243
 Frc consts  --      1.2233                 0.5246                 0.5435
 IR Inten    --     11.9863                79.2670                23.5712

                     34                     35                     36
                      A                      A                      A
 Frequencies --    786.4991               796.6627               826.6566
 Red. masses --      1.9010                 1.9578                 1.6352
 Frc consts  --      0.6928                 0.7321                 0.6584
 IR Inten    --     15.1735                46.0246                 5.0109

                     37                     38                     39
                      A                      A                      A
 Frequencies --    853.6886               882.3103               883.6023
 Red. masses --      2.6012                 1.2587                 1.2471
 Frc consts  --      1.1169                 0.5773                 0.5737
 IR Inten    --     13.8171                 1.5873                 0.1277

                     40                     41                     42
                      A                      A                      A
 Frequencies --    883.9412               924.7050               943.5593
 Red. masses --      2.2059                 1.8897                 1.8447
 Frc consts  --      1.0155                 0.9520                 0.9676
 IR Inten    --     26.6154                 2.5838                 4.8833

                     43                     44                     45
                      A                      A                      A
 Frequencies --    952.8996               954.3606               967.0822
 Red. masses --      1.5244                 1.8971                 1.9729
 Frc consts  --      0.8155                 1.0181                 1.0871
 IR Inten    --      3.0350                 1.6254                 3.2331

                     46                     47                     48
                      A                      A                      A
 Frequencies --   1004.7196              1005.8804              1007.6068
 Red. masses --      1.3906                 1.4109                 2.8973
 Frc consts  --      0.8271                 0.8411                 1.7331
 IR Inten    --      0.1360                 0.2474                 4.3237

                     49                     50                     51
                      A                      A                      A
 Frequencies --   1029.6849              1031.0199              1035.4406
 Red. masses --      1.4216                 1.4825                 4.5521
 Frc consts  --      0.8880                 0.9285                 2.8755
 IR Inten    --      0.5780                 0.1842                 0.6793

                     52                     53                     54
                      A                      A                      A
 Frequencies --   1036.7625              1048.0794              1056.9562
 Red. masses --      5.0111                 3.5507                 3.6398
 Frc consts  --      3.1735                 2.2980                 2.3957
 IR Inten    --      0.5432                 1.3747                 9.7041

                     55                     56                     57
                      A                      A                      A
 Frequencies --   1066.9495              1067.1313              1112.3309
 Red. masses --      2.2312                 2.2341                 1.5828
 Frc consts  --      1.4965                 1.4989                 1.1538
 IR Inten    --      8.6272                 8.0485                 0.5988

                     58                     59                     60
                      A                      A                      A
 Frequencies --   1119.2931              1123.6918              1127.3367
 Red. masses --      1.6563                 1.6450                 1.6179
 Frc consts  --      1.2226                 1.2238                 1.2115
 IR Inten    --     10.8850                 0.9100                 0.1725

                     61                     62                     63
                      A                      A                      A
 Frequencies --   1141.2499              1182.1621              1216.2649
 Red. masses --      1.9619                 2.2670                 1.0899
 Frc consts  --      1.5055                 1.8666                 0.9499
 IR Inten    --     17.0148                 5.5234                 0.4090

                     64                     65                     66
                      A                      A                      A
 Frequencies --   1217.1527              1228.1909              1228.6060
 Red. masses --      1.0915                 1.1608                 1.1707
 Frc consts  --      0.9528                 1.0317                 1.0411
 IR Inten    --      0.2152                 1.8321                 1.5380

                     67                     68                     69
                      A                      A                      A
 Frequencies --   1235.1227              1236.5299              1283.2776
 Red. masses --      2.3144                 2.4194                 1.5756
 Frc consts  --      2.0802                 2.1795                 1.5288
 IR Inten    --      0.1673                 0.3293                10.0305

                     70                     71                     72
                      A                      A                      A
 Frequencies --   1324.6264              1349.1678              1369.8633
 Red. masses --      1.7951                 1.7997                 1.4724
 Frc consts  --      1.8558                 1.9301                 1.6279
 IR Inten    --      3.7558                 3.3046                 2.0606

                     73                     74                     75
                      A                      A                      A
 Frequencies --   1377.3436              1380.1023              1398.0755
 Red. masses --      2.5764                 1.9079                 1.3121
 Frc consts  --      2.8797                 2.1411                 1.5111
 IR Inten    --      4.2268                 6.9262                 1.7168

                     76                     77                     78
                      A                      A                      A
 Frequencies --   1411.3588              1431.5052              1437.2762
 Red. masses --      1.3748                 1.3286                 1.1958
 Frc consts  --      1.6135                 1.6040                 1.4555
 IR Inten    --      1.7922                15.0226                13.4553

                     79                     80                     81
                      A                      A                      A
 Frequencies --   1453.1158              1453.8492              1509.7203
 Red. masses --      1.2656                 1.2006                 2.0219
 Frc consts  --      1.5745                 1.4951                 2.7152
 IR Inten    --      6.6237                30.6384                 2.8299

                     82                     83                     84
                      A                      A                      A
 Frequencies --   1510.4983              1512.6686              1516.8772
 Red. masses --      2.0056                 1.0645                 1.0487
 Frc consts  --      2.6961                 1.4352                 1.4217
 IR Inten    --     13.1529                28.1213                11.0302

                     85                     86                     87
                      A                      A                      A
 Frequencies --   1522.3621              1528.2676              1550.6014
 Red. masses --      1.0585                 1.0616                 2.1141
 Frc consts  --      1.4454                 1.4609                 2.9948
 IR Inten    --     18.1005                14.3425                23.5092

                     88                     89                     90
                      A                      A                      A
 Frequencies --   1550.9913              1641.7572              1642.1940
 Red. masses --      2.1143                 5.4809                 5.4579
 Frc consts  --      2.9967                 8.7040                 8.6721
 IR Inten    --     13.3768                 1.8187                 3.6027

                     91                     92                     93
                      A                      A                      A
 Frequencies --   1660.3236              1661.1932              1714.5838
 Red. masses --      5.6512                 5.6269                 9.1346
 Frc consts  --      9.1786                 9.1487                15.8218
 IR Inten    --      4.1341                 5.4924               107.5799

                     94                     95                     96
                      A                      A                      A
 Frequencies --   1731.5536              2997.6085              3024.6497
 Red. masses --      7.0499                 1.0820                 1.0772
 Frc consts  --     12.4538                 5.7282                 5.8064
 IR Inten    --    148.6312                25.7927                47.7870

                     97                     98                     99
                      A                      A                      A
 Frequencies --   3040.9385              3042.2933              3050.2483
 Red. masses --      1.0449                 1.0590                 1.0601
 Frc consts  --      5.6929                 5.7748                 5.8111
 IR Inten    --     26.3667                10.1352                33.7670

                    100                    101                    102
                      A                      A                      A
 Frequencies --   3095.5846              3110.9333              3116.3204
 Red. masses --      1.0975                 1.0967                 1.0893
 Frc consts  --      6.1961                 6.2534                 6.2328
 IR Inten    --     17.2058                11.8548                39.4075

                    103                    104                    105
                      A                      A                      A
 Frequencies --   3147.4537              3153.9493              3188.5378
 Red. masses --      1.0989                 1.0988                 1.0853
 Frc consts  --      6.4139                 6.4401                 6.5012
 IR Inten    --     51.4873                18.1955                 2.5232

                    106                    107                    108
                      A                      A                      A
 Frequencies --   3189.0107              3195.8322              3196.2430
 Red. masses --      1.0854                 1.0883                 1.0882
 Frc consts  --      6.5033                 6.5488                 6.5501
 IR Inten    --      2.1269                 6.2693                 4.0403

                    109                    110                    111
                      A                      A                      A
 Frequencies --   3206.2561              3206.6000              3218.9009
 Red. masses --      1.0929                 1.0928                 1.0963
 Frc consts  --      6.6195                 6.6202                 6.6926
 IR Inten    --     29.1720                55.3437                37.7165

                    112                    113                    114
                      A                      A                      A
 Frequencies --   3219.2540              3228.7896              3231.7717
 Red. masses --      1.0972                 1.0961                 1.0949
 Frc consts  --      6.6994                 6.7326                 6.7375
 IR Inten    --     38.3687                 8.9653                 7.8701

 - Thermochemistry -
 -------------------
 Temperature   298.150 Kelvin.  Pressure   1.00000 Atm.
 Atom     1 has atomic number  6 and mass  12.00000

 Molecular mass:   264.16265 amu.
 Principal axes and moments of inertia in atomic units:
                           1         2         3
     Eigenvalues --  4903.716745750.913868826.63657
           X            0.99895  -0.04577  -0.00316
           Y            0.04578   0.99894   0.00417
           Z            0.00296  -0.00431   0.99999
 This molecule is an asymmetric top.
 Rotational symmetry number  1.
 Warning -- assumption of classical behavior for rotation
           may cause significant error
 Rotational temperatures (Kelvin)      0.01766     0.01506     0.00981
 Rotational constants (GHZ):           0.36804     0.31382     0.20447
 Zero-point vibrational energy     893057.0 (Joules/Mol)
                                  213.44574 (Kcal/Mol)
 Warning -- explicit consideration of  26 degrees of freedom as
           vibrations may cause significant error
 Vibrational temperatures:     35.88    49.15    59.09    66.72    75.51
          (Kelvin)             78.40   121.34   125.83   186.56   215.34
                              251.87   295.83   305.66   341.25   349.14
                              413.67   424.10   513.29   544.67   612.24
                              614.32   661.36   722.25   756.20   779.05
                              867.11   905.13   936.61   937.78   945.18
                              977.16  1051.07  1052.38  1131.60  1146.22
                             1189.37  1228.27  1269.45  1271.31  1271.79
                             1330.44  1357.57  1371.01  1373.11  1391.42
                             1445.57  1447.24  1449.72  1481.49  1483.41
                             1489.77  1491.67  1507.95  1520.72  1535.10
                             1535.36  1600.40  1610.41  1616.74  1621.99
                             1642.00  1700.87  1749.93  1751.21  1767.09
                             1767.69  1777.07  1779.09  1846.35  1905.84
                             1941.15  1970.93  1981.69  1985.66  2011.52
                             2030.63  2059.62  2067.92  2090.71  2091.76
                             2172.15  2173.27  2176.39  2182.45  2190.34
                             2198.84  2230.97  2231.53  2362.12  2362.75
                             2388.84  2390.09  2466.90  2491.32  4312.89
                             4351.80  4375.23  4377.18  4388.63  4453.86
                             4475.94  4483.69  4528.48  4537.83  4587.59
                             4588.28  4598.09  4598.68  4613.09  4613.58
                             4631.28  4631.79  4645.51  4649.80

 Zero-point correction=                           0.340147 (Hartree/Particle)
 Thermal correction to Energy=                    0.359068
 Thermal correction to Enthalpy=                  0.360012
 Thermal correction to Gibbs Free Energy=         0.290224
 Sum of electronic and zero-point Energies=           -806.905706
 Sum of electronic and thermal Energies=              -806.886786
 Sum of electronic and thermal Enthalpies=            -806.885841
 Sum of electronic and thermal Free Energies=         -806.955630

                     E (Thermal)             CV                S
                      KCal/Mol        Cal/Mol-Kelvin    Cal/Mol-Kelvin
 Total                  225.319             70.843            146.882
 Electronic               0.000              0.000              0.000
 Translational            0.889              2.981             42.614
 Rotational               0.889              2.981             33.875
 Vibrational            223.541             64.881             70.393
 Vibration     1          0.593              1.985              6.196
 Vibration     2          0.594              1.983              5.572
 Vibration     3          0.594              1.981              5.207
 Vibration     4          0.595              1.979              4.967
 Vibration     5          0.596              1.977              4.722
 Vibration     6          0.596              1.976              4.647
 Vibration     7          0.601              1.960              3.787
 Vibration     8          0.601              1.958              3.716
 Vibration     9          0.612              1.924              2.951
 Vibration    10          0.618              1.903              2.676
 Vibration    11          0.627              1.873              2.380
 Vibration    12          0.640              1.832              2.082
 Vibration    13          0.643              1.822              2.023
 Vibration    14          0.656              1.784              1.824
 Vibration    15          0.659              1.775              1.783
 Vibration    16          0.685              1.697              1.489
 Vibration    17          0.689              1.684              1.446
 Vibration    18          0.732              1.561              1.136
 Vibration    19          0.749              1.516              1.045
 Vibration    20          0.787              1.415              0.873
 Vibration    21          0.789              1.412              0.869
 Vibration    22          0.818              1.340              0.767
 Vibration    23          0.857              1.246              0.653
 Vibration    24          0.881              1.193              0.597
 Vibration    25          0.897              1.158              0.562
 Vibration    26          0.961              1.026              0.445

 Optimization completed.
    -- Stationary point found.
 Normal termination of Gaussian 16 at Wed Sep 29 03:10:10 2021.
