 Gaussian 16, Revision C.01,
 Gaussian 16:  ES64L-G16RevC.01  3-Jul-2019

 ----------------------------------------------------
 # opt freq b3lyp/6-31g(d) scrf=(smd,solvent=toluene)
 ----------------------------------------------------

 ------------
 CH2NMeCH2CH3
 ------------
 Symbolic Z-matrix:
 Charge =  0 Multiplicity = 1

 SCF Done:  E(RB3LYP) =  -426.342052608     A.U. after   11 cycles
 SCF Done:  E(RB3LYP) =  -426.365704649     A.U. after   10 cycles
 SCF Done:  E(RB3LYP) =  -426.373434827     A.U. after   10 cycles
 SCF Done:  E(RB3LYP) =  -426.376336461     A.U. after   10 cycles
 SCF Done:  E(RB3LYP) =  -426.377730105     A.U. after   10 cycles
 SCF Done:  E(RB3LYP) =  -426.378021343     A.U. after    9 cycles
 SCF Done:  E(RB3LYP) =  -426.378083336     A.U. after    9 cycles
 SCF Done:  E(RB3LYP) =  -426.378115371     A.U. after    8 cycles
 SCF Done:  E(RB3LYP) =  -426.378143668     A.U. after    8 cycles
 SCF Done:  E(RB3LYP) =  -426.378168330     A.U. after    9 cycles
 SCF Done:  E(RB3LYP) =  -426.374183804     A.U. after   11 cycles
 SCF Done:  E(RB3LYP) =  -426.380284932     A.U. after   10 cycles
 SCF Done:  E(RB3LYP) =  -426.380366582     A.U. after   10 cycles
 SCF Done:  E(RB3LYP) =  -426.380751995     A.U. after    9 cycles
 SCF Done:  E(RB3LYP) =  -426.380783658     A.U. after    9 cycles
 SCF Done:  E(RB3LYP) =  -426.380787769     A.U. after    7 cycles
 SCF Done:  E(RB3LYP) =  -426.380788932     A.U. after    7 cycles
 SCF Done:  E(RB3LYP) =  -426.380788991     A.U. after    7 cycles
 SCF Done:  E(RB3LYP) =  -426.380788958     A.U. after    6 cycles
 Optimization completed.
    -- Stationary point found.
 Normal termination of Gaussian 16 at Sun Oct 24 10:10:16 2021.

 --------------------------------------------------------------------
 #N Geom=AllCheck Guess=TCheck SCRF=Check GenChk RB3LYP/6-31G(d) Freq
 --------------------------------------------------------------------

 Structure from the checkpoint file:  "CH2NMeCH2CH3.chk"
 ------------
 CH2NMeCH2CH3
 ------------
 Charge =  0 Multiplicity = 1

                         Standard orientation:
 ---------------------------------------------------------------------
 Center     Atomic      Atomic             Coordinates (Angstroms)
 Number     Number       Type             X           Y           Z
 ---------------------------------------------------------------------
      1          6           0        0.739026   -0.337758   -1.008872
      2          1           0        0.836407    0.669068   -1.423545
      3          1           0        1.048357   -1.048195   -1.804160
      4          6           0       -0.756729   -0.558855   -0.728408
      5          1           0       -1.239643   -0.629161   -1.710748
      6          1           0       -0.918808   -1.537110   -0.239577
      7          7           0        1.634109   -0.451025    0.149886
      8          7           0       -1.395118    0.539337   -0.000123
      9          6           0        2.930310    0.198303   -0.090453
     10          1           0        3.616235   -0.150769    0.690410
     11          1           0        3.368877   -0.126827   -1.055413
     12          6           0        1.818912   -1.843346    0.544596
     13          1           0        2.307692   -2.455294   -0.240143
     14          1           0        2.435436   -1.894035    1.448734
     15          1           0        0.855144   -2.306956    0.775298
     16          6           0        2.872487    1.724615   -0.032292
     17          1           0        2.488276    2.058301    0.937860
     18          1           0        3.878175    2.141045   -0.166906
     19          1           0        2.233911    2.153265   -0.811979
     20          6           0       -2.796469    0.758373   -0.371226
     21          1           0       -3.121330    1.683668    0.123263
     22          1           0       -2.825417    0.956456   -1.450979
     23          6           0       -3.799025   -0.361338   -0.042006
     24          1           0       -4.804777   -0.072950   -0.372235
     25          1           0       -3.541806   -1.299497   -0.548015
     26          1           0       -3.850844   -0.562035    1.034098
     27          6           0       -1.186464    0.481711    1.442305
     28          1           0       -1.610424    1.379296    1.909206
     29          1           0       -1.646506   -0.401122    1.927603
     30          1           0       -0.114174    0.454437    1.647016
 ---------------------------------------------------------------------

 SCF Done:  E(RB3LYP) =  -426.380788958     A.U. after    1 cycles

 The electronic state is 1-A.
 Alpha  occ. eigenvalues --  -14.31640 -14.30832 -10.19848 -10.19588 -10.19563
 Alpha  occ. eigenvalues --  -10.19431 -10.19198 -10.18060 -10.16527 -10.16420
 Alpha  occ. eigenvalues --   -0.91389  -0.89581  -0.75000  -0.73409  -0.71870
 Alpha  occ. eigenvalues --   -0.66764  -0.64590  -0.61605  -0.57221  -0.54331
 Alpha  occ. eigenvalues --   -0.47941  -0.46855  -0.46315  -0.44747  -0.43224
 Alpha  occ. eigenvalues --   -0.42293  -0.41511  -0.40328  -0.38455  -0.37618
 Alpha  occ. eigenvalues --   -0.36868  -0.36756  -0.35475  -0.35248  -0.34065
 Alpha  occ. eigenvalues --   -0.33781  -0.33028  -0.32653  -0.31762  -0.20959
 Alpha  occ. eigenvalues --   -0.18995
 Alpha virt. eigenvalues --    0.08776   0.10177   0.11887   0.12454   0.14001
 Alpha virt. eigenvalues --    0.14467   0.14761   0.15546   0.16101   0.16114
 Alpha virt. eigenvalues --    0.17218   0.18028   0.18274   0.18983   0.19291

 Mulliken charges:
               1
     1  C   -0.117031
     2  H    0.150325
     3  H    0.103984
     4  C   -0.137428
     5  H    0.139153
     6  H    0.122377
     7  N   -0.376664
     8  N   -0.375210
     9  C   -0.112193
    10  H    0.139454
    11  H    0.110909
    12  C   -0.311766
    13  H    0.118343
    14  H    0.153646
    15  H    0.156798
    16  C   -0.454474
    17  H    0.155769
    18  H    0.143164
    19  H    0.156647
    20  C   -0.130559
    21  H    0.137325
    22  H    0.137511
    23  C   -0.464656
    24  H    0.143753
    25  H    0.148471
    26  H    0.151816
    27  C   -0.318778
    28  H    0.140459
    29  H    0.113219
    30  H    0.175637
 Sum of Mulliken charges =   0.00000

 Dipole moment (field-independent basis, Debye):
    X=              0.1840    Y=             -0.8116    Z=             -0.3764  Tot=              0.9134
 Quadrupole moment (field-independent basis, Debye-Ang):
   XX=            -62.5237   YY=            -66.5070   ZZ=            -65.3251
   XY=             -0.4370   XZ=              0.6190   YZ=             -0.1030

  Exact polarizability:     131.429      -2.187     111.151       0.681       1.364     108.824
 Approx polarizability:     137.957      -2.843     132.469       0.704       1.122     134.669

                      1                      2                      3
                      A                      A                      A
 Frequencies --     37.3818                44.7317                95.8517
 Red. masses --      3.0788                 2.7741                 2.3218
 Frc consts  --      0.0025                 0.0033                 0.0126
 IR Inten    --      0.1511                 0.1144                 0.3130

                      4                      5                      6
                      A                      A                      A
 Frequencies --    102.4972               109.1319               199.5249
 Red. masses --      1.9389                 2.2656                 1.5220
 Frc consts  --      0.0120                 0.0159                 0.0357
 IR Inten    --      0.1998                 0.3697                 1.7294

                      7                      8                      9
                      A                      A                      A
 Frequencies --    214.8770               233.5055               242.8841
 Red. masses --      1.4767                 1.2280                 1.3279
 Frc consts  --      0.0402                 0.0395                 0.0462
 IR Inten    --      0.6585                 0.2093                 2.2518

                     10                     11                     12
                      A                      A                      A
 Frequencies --    258.9034               266.1959               307.7879
 Red. masses --      1.4787                 1.5838                 2.3797
 Frc consts  --      0.0584                 0.0661                 0.1328
 IR Inten    --      1.3852                 0.9789                 1.9557

                     13                     14                     15
                      A                      A                      A
 Frequencies --    320.7390               387.2933               415.1820
 Red. masses --      1.9463                 1.9443                 2.0212
 Frc consts  --      0.1180                 0.1718                 0.2053
 IR Inten    --      0.6161                 4.3267                 3.2974

                     16                     17                     18
                      A                      A                      A
 Frequencies --    437.8857               460.5875               483.7389
 Red. masses --      2.1209                 2.5686                 2.4959
 Frc consts  --      0.2396                 0.3211                 0.3441
 IR Inten    --      0.5455                 5.4914                 3.7716

                     19                     20                     21
                      A                      A                      A
 Frequencies --    579.4816               756.4739               775.1409
 Red. masses --      2.3038                 2.8116                 2.4635
 Frc consts  --      0.4558                 0.9480                 0.8721
 IR Inten    --     12.1594                13.1631                16.4746

                     22                     23                     24
                      A                      A                      A
 Frequencies --    799.2747               821.3176               901.6587
 Red. masses --      1.1528                 1.2065                 2.1182
 Frc consts  --      0.4339                 0.4795                 1.0146
 IR Inten    --      3.0447                 2.7258                 0.9019

                     25                     26                     27
                      A                      A                      A
 Frequencies --    932.0916               971.4329              1002.3934
 Red. masses --      1.9897                 2.3460                 2.3688
 Frc consts  --      1.0185                 1.3044                 1.4024
 IR Inten    --      9.6491                18.6744                19.3016

                     28                     29                     30
                      A                      A                      A
 Frequencies --   1056.6397              1069.5660              1084.2432
 Red. masses --      2.2929                 2.4125                 1.7823
 Frc consts  --      1.5083                 1.6261                 1.2345
 IR Inten    --     65.7248                26.3641                 6.7215

                     31                     32                     33
                      A                      A                      A
 Frequencies --   1095.3123              1107.5538              1113.7851
 Red. masses --      1.6945                 2.1198                 1.7661
 Frc consts  --      1.1977                 1.5321                 1.2908
 IR Inten    --     11.9160                37.1446                28.7266

                     34                     35                     36
                      A                      A                      A
 Frequencies --   1124.5734              1160.2942              1178.8310
 Red. masses --      1.7257                 1.3282                 1.5409
 Frc consts  --      1.2859                 1.0536                 1.2616
 IR Inten    --     21.7122                17.5434                 5.9413

                     37                     38                     39
                      A                      A                      A
 Frequencies --   1196.3830              1240.6924              1265.4972
 Red. masses --      1.7164                 2.3296                 2.0871
 Frc consts  --      1.4475                 2.1128                 1.9693
 IR Inten    --     20.1437                11.3654                21.1666

                     40                     41                     42
                      A                      A                      A
 Frequencies --   1271.9296              1332.2468              1337.3354
 Red. masses --      1.8228                 1.4002                 1.2707
 Frc consts  --      1.7375                 1.4643                 1.3390
 IR Inten    --     17.1717                15.8396                16.7422

                     43                     44                     45
                      A                      A                      A
 Frequencies --   1361.6197              1386.7577              1401.1752
 Red. masses --      1.2557                 1.3447                 1.2845
 Frc consts  --      1.3717                 1.5236                 1.4858
 IR Inten    --      7.9678                32.4509                43.2665

                     46                     47                     48
                      A                      A                      A
 Frequencies --   1414.8397              1422.2800              1429.1712
 Red. masses --      1.2968                 1.2851                 1.2732
 Frc consts  --      1.5294                 1.5316                 1.5322
 IR Inten    --     16.4856                13.4658                13.9559

                     49                     50                     51
                      A                      A                      A
 Frequencies --   1432.4449              1445.5894              1474.9028
 Red. masses --      1.3660                 1.3029                 1.1649
 Frc consts  --      1.6514                 1.6042                 1.4931
 IR Inten    --      8.2006                19.4381                 2.3698

                     52                     53                     54
                      A                      A                      A
 Frequencies --   1485.3345              1500.0400              1506.6667
 Red. masses --      1.1646                 1.0705                 1.0900
 Frc consts  --      1.5139                 1.4192                 1.4578
 IR Inten    --      3.4229                 1.4099                 5.9830

                     55                     56                     57
                      A                      A                      A
 Frequencies --   1511.1459              1514.5559              1518.7089
 Red. masses --      1.0582                 1.0627                 1.0552
 Frc consts  --      1.4237                 1.4363                 1.4339
 IR Inten    --      4.5829                 0.9991                10.9231

                     58                     59                     60
                      A                      A                      A
 Frequencies --   1520.0198              1523.7964              1526.3891
 Red. masses --      1.0495                 1.0652                 1.0592
 Frc consts  --      1.4287                 1.4572                 1.4540
 IR Inten    --      1.2137                 1.3671                16.9110

                     61                     62                     63
                      A                      A                      A
 Frequencies --   1530.6630              1534.9940              1538.9381
 Red. masses --      1.0515                 1.0833                 1.0880
 Frc consts  --      1.4515                 1.5039                 1.5181
 IR Inten    --      3.4984                 7.7125                 4.0131

                     64                     65                     66
                      A                      A                      A
 Frequencies --   1550.2552              2902.9063              2922.3115
 Red. masses --      1.0497                 1.0736                 1.0712
 Frc consts  --      1.4864                 5.3304                 5.3900
 IR Inten    --      4.8548                72.7775                67.8977

                     67                     68                     69
                      A                      A                      A
 Frequencies --   2935.5573              2939.4392              2957.1263
 Red. masses --      1.0646                 1.0620                 1.0719
 Frc consts  --      5.4055                 5.4064                 5.5228
 IR Inten    --    219.2696                81.6052               122.9302

                     70                     71                     72
                      A                      A                      A
 Frequencies --   3032.0879              3047.8670              3054.2145
 Red. masses --      1.0601                 1.0363                 1.0366
 Frc consts  --      5.7420                 5.6717                 5.6974
 IR Inten    --     48.4041                26.4671                22.3010

                     73                     74                     75
                      A                      A                      A
 Frequencies --   3065.8969              3070.6930              3071.9825
 Red. masses --      1.0997                 1.0870                 1.0916
 Frc consts  --      6.0904                 6.0387                 6.0697
 IR Inten    --      3.4559                22.6184                79.8142

                     76                     77                     78
                      A                      A                      A
 Frequencies --   3073.8691              3086.1542              3109.2650
 Red. masses --      1.0770                 1.0709                 1.1014
 Frc consts  --      5.9959                 6.0094                 6.2736
 IR Inten    --     44.3664                50.2373                56.9445

                     79                     80                     81
                      A                      A                      A
 Frequencies --   3113.0683              3119.7213              3120.3553
 Red. masses --      1.0917                 1.0973                 1.1028
 Frc consts  --      6.2336                 6.2923                 6.3264
 IR Inten    --     29.4486                42.8523                59.6776

                     82                     83                     84
                      A                      A                      A
 Frequencies --   3129.5486              3130.5671              3149.5345
 Red. masses --      1.1021                 1.1016                 1.0979
 Frc consts  --      6.3595                 6.3609                 6.4166
 IR Inten    --     36.3656                61.3932                 5.5923

 - Thermochemistry -
 -------------------
 Temperature   298.150 Kelvin.  Pressure   1.00000 Atm.
 Atom     1 has atomic number  6 and mass  12.00000

 Molecular mass:   144.16265 amu.
 Principal axes and moments of inertia in atomic units:
                           1         2         3
     Eigenvalues --   780.562612937.197163165.68752
           X            0.99997   0.00693  -0.00190
           Y           -0.00693   0.99997  -0.00203
           Z            0.00188   0.00205   1.00000
 This molecule is an asymmetric top.
 Rotational symmetry number  1.
 Warning -- assumption of classical behavior for rotation
           may cause significant error
 Rotational temperatures (Kelvin)      0.11096     0.02949     0.02736
 Rotational constants (GHZ):           2.31210     0.61444     0.57009
 Zero-point vibrational energy     737828.6 (Joules/Mol)
                                  176.34526 (Kcal/Mol)
 Warning -- explicit consideration of  19 degrees of freedom as
           vibrations may cause significant error
 Vibrational temperatures:     53.78    64.36   137.91   147.47   157.02
          (Kelvin)            287.07   309.16   335.96   349.46   372.50
                              383.00   442.84   461.47   557.23   597.35
                              630.02   662.68   695.99   833.74  1088.40
                             1115.25  1149.98  1181.69  1297.29  1341.07
                             1397.68  1442.22  1520.27  1538.87  1559.98
                             1575.91  1593.52  1602.49  1618.01  1669.40
                             1696.07  1721.33  1785.08  1820.77  1830.02
                             1916.81  1924.13  1959.07  1995.24  2015.98
                             2035.64  2046.34  2056.26  2060.97  2079.88
                             2122.06  2137.07  2158.22  2167.76  2174.20
                             2179.11  2185.08  2186.97  2192.40  2196.13
                             2202.28  2208.51  2214.19  2230.47  4176.63
                             4204.55  4223.61  4229.20  4254.65  4362.50
                             4385.20  4394.33  4411.14  4418.04  4419.90
                             4422.61  4440.29  4473.54  4479.01  4488.58
                             4489.50  4502.72  4504.19  4531.48

 Zero-point correction=                           0.281024 (Hartree/Particle)
 Thermal correction to Energy=                    0.294081
 Thermal correction to Enthalpy=                  0.295025
 Thermal correction to Gibbs Free Energy=         0.241511
 Sum of electronic and zero-point Energies=           -426.099765
 Sum of electronic and thermal Energies=              -426.086708
 Sum of electronic and thermal Enthalpies=            -426.085764
 Sum of electronic and thermal Free Energies=         -426.139278

                     E (Thermal)             CV                S
                      KCal/Mol        Cal/Mol-Kelvin    Cal/Mol-Kelvin
 Total                  184.538             47.456            112.631
 Electronic               0.000              0.000              0.000
 Translational            0.889              2.981             40.808
 Rotational               0.889              2.981             30.363
 Vibrational            182.761             41.494             41.459
 Vibration     1          0.594              1.982              5.393
 Vibration     2          0.595              1.980              5.038
 Vibration     3          0.603              1.952              3.537
 Vibration     4          0.605              1.947              3.406
 Vibration     5          0.606              1.942              3.284
 Vibration     6          0.638              1.841              2.137
 Vibration     7          0.645              1.818              2.002
 Vibration     8          0.654              1.790              1.852
 Vibration     9          0.659              1.775              1.782
 Vibration    10          0.668              1.748              1.669
 Vibration    11          0.672              1.735              1.621
 Vibration    12          0.698              1.659              1.374
 Vibration    13          0.706              1.634              1.306
 Vibration    14          0.756              1.497              1.011
 Vibration    15          0.779              1.437              0.908
 Vibration    16          0.798              1.388              0.833
 Vibration    17          0.818              1.337              0.764
 Vibration    18          0.840              1.286              0.700
 Vibration    19          0.936              1.076              0.486

 Optimization completed.
    -- Stationary point found.
 Normal termination of Gaussian 16 at Sun Oct 24 10:16:02 2021.
