 Gaussian 16, Revision C.01,
 Gaussian 16:  ES64L-G16RevC.01  3-Jul-2019

 ----------------------------------------------------
 # opt freq b3lyp/6-31g(d) scrf=(smd,solvent=toluene)
 ----------------------------------------------------

 ------------
 CH2CH2NCHCH3
 ------------
 Symbolic Z-matrix:
 Charge =  0 Multiplicity = 1

 SCF Done:  E(RB3LYP) =  -384.511241453     A.U. after   14 cycles
 SCF Done:  E(RB3LYP) =  -384.565575947     A.U. after   12 cycles
 SCF Done:  E(RB3LYP) =  -384.611818428     A.U. after   14 cycles
 SCF Done:  E(RB3LYP) =  -384.637062485     A.U. after   13 cycles
 SCF Done:  E(RB3LYP) =  -384.647035777     A.U. after   12 cycles
 SCF Done:  E(RB3LYP) =  -384.643025737     A.U. after   13 cycles
 SCF Done:  E(RB3LYP) =  -384.647296556     A.U. after   11 cycles
 SCF Done:  E(RB3LYP) =  -384.653748503     A.U. after   12 cycles
 SCF Done:  E(RB3LYP) =  -384.653360335     A.U. after   11 cycles
 SCF Done:  E(RB3LYP) =  -384.655233107     A.U. after   10 cycles
 SCF Done:  E(RB3LYP) =  -384.655828433     A.U. after   10 cycles
 SCF Done:  E(RB3LYP) =  -384.655832137     A.U. after    9 cycles
 SCF Done:  E(RB3LYP) =  -384.655831545     A.U. after    8 cycles
 SCF Done:  E(RB3LYP) =  -384.655828586     A.U. after    8 cycles
 SCF Done:  E(RB3LYP) =  -384.655832082     A.U. after    9 cycles
 SCF Done:  E(RB3LYP) =  -384.655828707     A.U. after    9 cycles
 SCF Done:  E(RB3LYP) =  -384.655829018     A.U. after    7 cycles
 SCF Done:  E(RB3LYP) =  -384.655831980     A.U. after    9 cycles
 SCF Done:  E(RB3LYP) =  -384.655829047     A.U. after    9 cycles
 Optimization completed.
    -- Stationary point found.
 Normal termination of Gaussian 16 at Thu Sep 30 18:00:46 2021.

 --------------------------------------------------------------------
 #N Geom=AllCheck Guess=TCheck SCRF=Check GenChk RB3LYP/6-31G(d) Freq
 --------------------------------------------------------------------

 Structure from the checkpoint file:  "/home/rtong2/g16/093021/CH2CH2NCHCH3.chk"
 ------------
 CH2CH2NCHCH3
 ------------
 Charge =  0 Multiplicity = 1

                         Standard orientation:
 ---------------------------------------------------------------------
 Center     Atomic      Atomic             Coordinates (Angstroms)
 Number     Number       Type             X           Y           Z
 ---------------------------------------------------------------------
      1          6           0       -1.398573   -1.535632   -0.023722
      2          1           0       -2.149718   -2.218260    0.397411
      3          1           0       -1.475264   -1.606548   -1.123804
      4          6           0       -0.013845   -2.017864    0.440416
      5          1           0        0.125975   -1.724236    1.488332
      6          1           0       -0.001682   -3.115481    0.410793
      7          6           0        1.182460   -1.534240   -0.396009
      8          1           0        2.097553   -2.030069   -0.024349
      9          1           0        1.035798   -1.859850   -1.435840
     10          7           0       -1.719848   -0.204330    0.474186
     11          7           0        1.313755   -0.084815   -0.407488
     12          6           0       -2.046983    0.690879   -0.364700
     13          1           0       -2.075247    0.486911   -1.448705
     14          6           0        2.359837    0.424494    0.102462
     15          1           0        3.156175   -0.205679    0.537050
     16          6           0       -2.403766    2.085604    0.051726
     17          1           0       -2.360869    2.185013    1.139825
     18          1           0       -1.711620    2.807638   -0.402608
     19          1           0       -3.411461    2.350209   -0.296335
     20          6           0        2.592026    1.904347    0.152509
     21          1           0        2.716693    2.238983    1.191204
     22          1           0        3.516829    2.169145   -0.377876
     23          1           0        1.752555    2.440704   -0.298082
 ---------------------------------------------------------------------

 SCF Done:  E(RB3LYP) =  -384.655829047     A.U. after    1 cycles

 The electronic state is 1-A.
 Alpha  occ. eigenvalues --  -14.31560 -14.31060 -10.22084 -10.21513 -10.20058
 Alpha  occ. eigenvalues --  -10.19805 -10.17681 -10.17669 -10.17306  -0.91144
 Alpha  occ. eigenvalues --   -0.90168  -0.77488  -0.73661  -0.71021  -0.65665
 Alpha  occ. eigenvalues --   -0.58912  -0.54466  -0.54140  -0.48223  -0.46775
 Alpha  occ. eigenvalues --   -0.45648  -0.43096  -0.41632  -0.41165  -0.40242
 Alpha  occ. eigenvalues --   -0.39057  -0.37752  -0.37404  -0.35869  -0.33488
 Alpha  occ. eigenvalues --   -0.33424  -0.28393  -0.26897  -0.23944  -0.23710
 Alpha virt. eigenvalues --    0.00995   0.02099   0.10920   0.11562   0.12528
 Alpha virt. eigenvalues --    0.13723   0.14466   0.15171   0.16633   0.16999
 Alpha virt. eigenvalues --    0.17633   0.18005   0.18341   0.19564   0.20183

 Mulliken charges:
               1
     1  C   -0.140557
     2  H    0.147650
     3  H    0.120093
     4  C   -0.262258
     5  H    0.151990
     6  H    0.137889
     7  C   -0.152231
     8  H    0.119235
     9  H    0.145663
    10  N   -0.362135
    11  N   -0.354183
    12  C    0.111864
    13  H    0.117288
    14  C    0.097813
    15  H    0.116502
    16  C   -0.503103
    17  H    0.170210
    18  H    0.168702
    19  H    0.162818
    20  C   -0.500465
    21  H    0.169107
    22  H    0.166080
    23  H    0.172028
 Sum of Mulliken charges =   0.00000

 Dipole moment (field-independent basis, Debye):
    X=              1.2148    Y=             -0.0095    Z=             -0.7372  Tot=              1.4210
 Quadrupole moment (field-independent basis, Debye-Ang):
   XX=            -50.7737   YY=            -50.4009   ZZ=            -57.6440
   XY=             -0.1968   XZ=              4.2282   YZ=              0.2889

  Exact polarizability:     101.931       1.062     124.444       9.476      -1.569      83.475
 Approx polarizability:     118.021       2.179     139.821      15.558      -5.198     112.715

                      1                      2                      3
                      A                      A                      A
 Frequencies --     36.9911                49.4987                74.2418
 Red. masses --      2.4586                 3.0743                 2.3671
 Frc consts  --      0.0020                 0.0044                 0.0077
 IR Inten    --      2.5761                 0.9991                11.5125

                      4                      5                      6
                      A                      A                      A
 Frequencies --    115.5052               152.1377               196.5245
 Red. masses --      1.7210                 1.7111                 1.4453
 Frc consts  --      0.0135                 0.0233                 0.0329
 IR Inten    --      3.3857                 1.0713                 1.4036

                      7                      8                      9
                      A                      A                      A
 Frequencies --    208.9189               216.1500               267.8932
 Red. masses --      1.5483                 2.3325                 3.7692
 Frc consts  --      0.0398                 0.0642                 0.1594
 IR Inten    --      1.7094                 1.2498                 1.4818

                     10                     11                     12
                      A                      A                      A
 Frequencies --    310.4141               344.0966               428.5412
 Red. masses --      2.2791                 2.0770                 3.4674
 Frc consts  --      0.1294                 0.1449                 0.3752
 IR Inten    --      4.6257                 5.3123                20.6335

                     13                     14                     15
                      A                      A                      A
 Frequencies --    505.6374               521.7024               540.9424
 Red. masses --      2.1369                 2.4256                 2.8197
 Frc consts  --      0.3219                 0.3890                 0.4861
 IR Inten    --      1.5152                 3.7966                 5.2162

                     16                     17                     18
                      A                      A                      A
 Frequencies --    797.3632               860.3214               881.8843
 Red. masses --      2.0162                 1.4610                 1.3334
 Frc consts  --      0.7553                 0.6371                 0.6110
 IR Inten    --      5.6456                 8.0206                 2.0426

                     19                     20                     21
                      A                      A                      A
 Frequencies --    903.7247               912.0877               945.0779
 Red. masses --      1.6193                 1.6556                 1.4730
 Frc consts  --      0.7792                 0.8115                 0.7752
 IR Inten    --      6.0247                 5.8779                 8.3038

                     22                     23                     24
                      A                      A                      A
 Frequencies --    995.6764              1012.5801              1096.1343
 Red. masses --      2.0283                 2.5252                 3.1434
 Frc consts  --      1.1847                 1.5254                 2.2252
 IR Inten    --      1.9096                10.7158                13.1922

                     25                     26                     27
                      A                      A                      A
 Frequencies --   1102.8505              1107.1667              1108.0798
 Red. masses --      2.3167                 1.6683                 1.8498
 Frc consts  --      1.6602                 1.2049                 1.3382
 IR Inten    --      5.9145                 0.7601                 3.6614

                     28                     29                     30
                      A                      A                      A
 Frequencies --   1124.1146              1161.6301              1182.2194
 Red. masses --      2.0307                 2.0909                 2.2785
 Frc consts  --      1.5119                 1.6623                 1.8762
 IR Inten    --      0.4182                17.5099                11.3218

                     31                     32                     33
                      A                      A                      A
 Frequencies --   1241.1535              1288.1686              1308.7271
 Red. masses --      1.2294                 1.1197                 1.1030
 Frc consts  --      1.1158                 1.0947                 1.1130
 IR Inten    --      3.0099                 6.3258                 3.6593

                     34                     35                     36
                      A                      A                      A
 Frequencies --   1386.8709              1392.4695              1396.1893
 Red. masses --      1.2008                 1.2573                 1.4002
 Frc consts  --      1.3607                 1.4364                 1.6081
 IR Inten    --     11.5626                22.8309                 2.8124

                     37                     38                     39
                      A                      A                      A
 Frequencies --   1411.7682              1418.6041              1437.3458
 Red. masses --      1.2582                 1.3178                 1.3966
 Frc consts  --      1.4775                 1.5625                 1.7000
 IR Inten    --     16.5829                21.6482                13.6879

                     40                     41                     42
                      A                      A                      A
 Frequencies --   1440.6805              1496.1874              1498.3624
 Red. masses --      1.4197                 1.0770                 1.0639
 Frc consts  --      1.7362                 1.4205                 1.4073
 IR Inten    --     12.6692                12.5566                 1.4125

                     43                     44                     45
                      A                      A                      A
 Frequencies --   1498.6784              1500.0378              1501.9136
 Red. masses --      1.0556                 1.0465                 1.0472
 Frc consts  --      1.3969                 1.3874                 1.3917
 IR Inten    --     28.0163                14.9488                 3.7081

                     46                     47                     48
                      A                      A                      A
 Frequencies --   1511.4627              1518.9065              1766.8568
 Red. masses --      1.1039                 1.0975                 7.7099
 Frc consts  --      1.4858                 1.4919                14.1808
 IR Inten    --     14.1850                11.0259                85.6948

                     49                     50                     51
                      A                      A                      A
 Frequencies --   1771.2997              2961.0817              2965.9436
 Red. masses --      7.7198                 1.0694                 1.0691
 Frc consts  --     14.2706                 5.5247                 5.5410
 IR Inten    --    116.5449                68.2023                66.5565

                     52                     53                     54
                      A                      A                      A
 Frequencies --   2985.0511              2999.0294              3039.1196
 Red. masses --      1.0830                 1.0833                 1.0734
 Frc consts  --      5.6855                 5.7408                 5.8414
 IR Inten    --    103.5846                85.5465                20.9247

                     55                     56                     57
                      A                      A                      A
 Frequencies --   3040.2134              3041.4795              3042.8363
 Red. masses --      1.0404                 1.0403                 1.0912
 Frc consts  --      5.6660                 5.6699                 5.9525
 IR Inten    --     17.6814                25.1435                29.8688

                     58                     59                     60
                      A                      A                      A
 Frequencies --   3054.5094              3089.8815              3090.3534
 Red. masses --      1.0782                 1.1001                 1.1026
 Frc consts  --      5.9272                 6.1881                 6.2042
 IR Inten    --     91.0280                21.5395                46.8385

                     61                     62                     63
                      A                      A                      A
 Frequencies --   3091.4734              3147.3805              3148.7592
 Red. masses --      1.1000                 1.1010                 1.1011
 Frc consts  --      6.1940                 6.4261                 6.4321
 IR Inten    --     23.5330                18.8902                18.8452

 - Thermochemistry -
 -------------------
 Temperature   298.150 Kelvin.  Pressure   1.00000 Atm.
 Atom     1 has atomic number  6 and mass  12.00000

 Molecular mass:   126.11570 amu.
 Principal axes and moments of inertia in atomic units:
                           1         2         3
     Eigenvalues --  1054.399191664.922122553.51294
           X            0.99993  -0.00526   0.01075
           Y            0.00523   0.99998   0.00300
           Z           -0.01076  -0.00294   0.99994
 This molecule is an asymmetric top.
 Rotational symmetry number  1.
 Warning -- assumption of classical behavior for rotation
           may cause significant error
 Rotational temperatures (Kelvin)      0.08215     0.05202     0.03392
 Rotational constants (GHZ):           1.71163     1.08398     0.70677
 Zero-point vibrational energy     536183.6 (Joules/Mol)
                                  128.15096 (Kcal/Mol)
 Warning -- explicit consideration of  15 degrees of freedom as
           vibrations may cause significant error
 Vibrational temperatures:     53.22    71.22   106.82   166.19   218.89
          (Kelvin)            282.75   300.59   310.99   385.44   446.62
                              495.08   616.58   727.50   750.61   778.30
                             1147.23  1237.81  1268.83  1300.26  1312.29
                             1359.76  1432.56  1456.88  1577.09  1586.76
                             1592.97  1594.28  1617.35  1671.33  1700.95
                             1785.74  1853.39  1882.97  1995.40  2003.45
                             2008.80  2031.22  2041.05  2068.02  2072.82
                             2152.68  2155.81  2156.26  2158.22  2160.92
                             2174.66  2185.37  2542.11  2548.51  4260.34
                             4267.33  4294.82  4314.93  4372.62  4374.19
                             4376.01  4377.96  4394.76  4445.65  4446.33
                             4447.94  4528.38  4530.36

 Zero-point correction=                           0.204222 (Hartree/Particle)
 Thermal correction to Energy=                    0.215380
 Thermal correction to Enthalpy=                  0.216324
 Thermal correction to Gibbs Free Energy=         0.166321
 Sum of electronic and zero-point Energies=           -384.451607
 Sum of electronic and thermal Energies=              -384.440449
 Sum of electronic and thermal Enthalpies=            -384.439505
 Sum of electronic and thermal Free Energies=         -384.489508

                     E (Thermal)             CV                S
                      KCal/Mol        Cal/Mol-Kelvin    Cal/Mol-Kelvin
 Total                  135.153             38.678            105.240
 Electronic               0.000              0.000              0.000
 Translational            0.889              2.981             40.410
 Rotational               0.889              2.981             29.884
 Vibrational            133.375             32.717             34.946
 Vibration     1          0.594              1.982              5.414
 Vibration     2          0.595              1.978              4.837
 Vibration     3          0.599              1.966              4.038
 Vibration     4          0.608              1.937              3.174
 Vibration     5          0.619              1.900              2.645
 Vibration     6          0.636              1.845              2.165
 Vibration     7          0.642              1.827              2.053
 Vibration     8          0.645              1.816              1.991
 Vibration     9          0.673              1.732              1.610
 Vibration    10          0.699              1.654              1.360
 Vibration    11          0.723              1.587              1.193
 Vibration    12          0.790              1.408              0.863
 Vibration    13          0.861              1.238              0.644
 Vibration    14          0.877              1.202              0.606
 Vibration    15          0.896              1.160              0.563

 Optimization completed.
    -- Stationary point found.
 Normal termination of Gaussian 16 at Thu Sep 30 18:02:22 2021.
