 Gaussian 16, Revision C.01,
 Gaussian 16:  ES64L-G16RevC.01  3-Jul-2019

 ----------------------------------------------------
 # opt freq b3lyp/6-31g(d) scrf=(smd,solvent=toluene)
 ----------------------------------------------------

 ---------------
 CH2CH2NMeCH2CH3
 ---------------
 Symbolic Z-matrix:
 Charge =  0 Multiplicity = 1

 SCF Done:  E(RB3LYP) =  -465.640931218     A.U. after   11 cycles
 SCF Done:  E(RB3LYP) =  -465.669978567     A.U. after   10 cycles
 SCF Done:  E(RB3LYP) =  -465.673608309     A.U. after   10 cycles
 SCF Done:  E(RB3LYP) =  -465.683096296     A.U. after   10 cycles
 SCF Done:  E(RB3LYP) =  -465.686602021     A.U. after   10 cycles
 SCF Done:  E(RB3LYP) =  -465.689194570     A.U. after   10 cycles
 SCF Done:  E(RB3LYP) =  -465.691667161     A.U. after   12 cycles
 SCF Done:  E(RB3LYP) =  -465.693272069     A.U. after   10 cycles
 SCF Done:  E(RB3LYP) =  -465.694269926     A.U. after   11 cycles
 SCF Done:  E(RB3LYP) =  -465.694483665     A.U. after    9 cycles
 SCF Done:  E(RB3LYP) =  -465.694519872     A.U. after    9 cycles
 SCF Done:  E(RB3LYP) =  -465.694533914     A.U. after    8 cycles
 SCF Done:  E(RB3LYP) =  -465.694538185     A.U. after    8 cycles
 SCF Done:  E(RB3LYP) =  -465.694540039     A.U. after    8 cycles
 SCF Done:  E(RB3LYP) =  -465.694540660     A.U. after    7 cycles
 SCF Done:  E(RB3LYP) =  -465.694540843     A.U. after    7 cycles
 SCF Done:  E(RB3LYP) =  -465.694541141     A.U. after    7 cycles
 SCF Done:  E(RB3LYP) =  -465.694541224     A.U. after    6 cycles
 SCF Done:  E(RB3LYP) =  -465.694541274     A.U. after    6 cycles
 Optimization completed.
    -- Stationary point found.
 Normal termination of Gaussian 16 at Sun Oct 24 07:13:03 2021.

 --------------------------------------------------------------------
 #N Geom=AllCheck Guess=TCheck SCRF=Check GenChk RB3LYP/6-31G(d) Freq
 --------------------------------------------------------------------

 Structure from the checkpoint file:  "CH2CH2NMeCH2CH3.chk"
 ---------------
 CH2CH2NMeCH2CH3
 ---------------
 Charge =  0 Multiplicity = 1

                         Standard orientation:
 ---------------------------------------------------------------------
 Center     Atomic      Atomic             Coordinates (Angstroms)
 Number     Number       Type             X           Y           Z
 ---------------------------------------------------------------------
      1          6           0       -1.047564   -1.098790   -0.871447
      2          1           0       -1.765299   -1.723752   -1.437030
      3          1           0       -0.480761   -0.525152   -1.611308
      4          6           0       -0.067393   -1.993111   -0.084014
      5          1           0       -0.371307   -2.032708    0.967884
      6          1           0       -0.120272   -3.026380   -0.451547
      7          6           0        1.403364   -1.559295   -0.201915
      8          1           0        2.021682   -2.228839    0.432249
      9          1           0        1.725265   -1.730999   -1.237433
     10          7           0        1.659447   -0.148848    0.095634
     11          7           0       -1.761836   -0.141044   -0.013587
     12          6           0        1.375861    0.175902    1.489029
     13          1           0        1.992025   -0.409879    2.201729
     14          1           0        1.565173    1.236960    1.674688
     15          1           0        0.319427   -0.004518    1.700345
     16          6           0        3.020560    0.228874   -0.298698
     17          1           0        3.779875   -0.241238    0.360120
     18          1           0        3.190416   -0.176668   -1.303591
     19          6           0        3.250641    1.739824   -0.345241
     20          1           0        3.229600    2.201500    0.647573
     21          1           0        4.233647    1.953504   -0.781640
     22          1           0        2.486418    2.224543   -0.963485
     23          6           0       -2.889204   -0.782296    0.652523
     24          1           0       -3.323559   -0.120125    1.407226
     25          1           0       -3.693707   -1.077429   -0.051974
     26          1           0       -2.552900   -1.687243    1.168830
     27          6           0       -2.160480    1.061862   -0.750917
     28          1           0       -2.911748    0.829467   -1.534303
     29          1           0       -1.266048    1.428865   -1.266702
     30          6           0       -2.695382    2.179546    0.144515
     31          1           0       -2.831985    3.093835   -0.444978
     32          1           0       -3.664331    1.935063    0.593063
     33          1           0       -1.987308    2.395339    0.952946
 ---------------------------------------------------------------------

 SCF Done:  E(RB3LYP) =  -465.694541274     A.U. after    1 cycles

 The electronic state is 1-A.
 Alpha  occ. eigenvalues --  -14.31276 -14.31170 -10.19624 -10.19502 -10.19496
 Alpha  occ. eigenvalues --  -10.19220 -10.18973 -10.18212 -10.17049 -10.16546
 Alpha  occ. eigenvalues --  -10.16517  -0.90930  -0.90190  -0.76591  -0.73678
 Alpha  occ. eigenvalues --   -0.72331  -0.68666  -0.66493  -0.62964  -0.58505
 Alpha  occ. eigenvalues --   -0.56341  -0.54813  -0.48067  -0.47370  -0.46055
 Alpha  occ. eigenvalues --   -0.45796  -0.43147  -0.42843  -0.41671  -0.40666
 Alpha  occ. eigenvalues --   -0.39141  -0.38823  -0.37794  -0.36878  -0.35882
 Alpha  occ. eigenvalues --   -0.35339  -0.35093  -0.34414  -0.33224  -0.32814
 Alpha  occ. eigenvalues --   -0.32213  -0.32106  -0.31124  -0.20400  -0.19893
 Alpha virt. eigenvalues --    0.08873   0.10302   0.11692   0.11984   0.13476
 Alpha virt. eigenvalues --    0.14040   0.14565   0.15094   0.15734   0.16673
 Alpha virt. eigenvalues --    0.16761   0.17129   0.17329   0.18266   0.18520

 Mulliken charges:
               1
     1  C   -0.111966
     2  H    0.109242
     3  H    0.147871
     4  C   -0.283105
     5  H    0.151075
     6  H    0.134351
     7  C   -0.120005
     8  H    0.105992
     9  H    0.136094
    10  N   -0.378746
    11  N   -0.377628
    12  C   -0.319590
    13  H    0.107751
    14  H    0.151571
    15  H    0.171549
    16  C   -0.103361
    17  H    0.107364
    18  H    0.137623
    19  C   -0.460878
    20  H    0.152238
    21  H    0.144725
    22  H    0.153119
    23  C   -0.316481
    24  H    0.157419
    25  H    0.115486
    26  H    0.154183
    27  C   -0.106436
    28  H    0.104509
    29  H    0.150051
    30  C   -0.465866
    31  H    0.146197
    32  H    0.150046
    33  H    0.155607
 Sum of Mulliken charges =   0.00000

 Dipole moment (field-independent basis, Debye):
    X=             -0.0665    Y=             -0.4133    Z=             -0.2379  Tot=              0.4815
 Quadrupole moment (field-independent basis, Debye-Ang):
   XX=            -70.3243   YY=            -71.3227   ZZ=            -72.0611
   XY=              0.2060   XZ=             -1.0070   YZ=              0.1643

  Exact polarizability:     138.980       0.871     132.241      -0.682       0.691     117.439
 Approx polarizability:     151.422       0.673     149.949      -0.101       0.058     147.490

                      1                      2                      3
                      A                      A                      A
 Frequencies --     23.7601                45.4273                52.4616
 Red. masses --      3.0685                 2.5875                 2.7134
 Frc consts  --      0.0010                 0.0031                 0.0044
 IR Inten    --      0.0255                 0.2670                 0.9813

                      4                      5                      6
                      A                      A                      A
 Frequencies --     76.6751                91.8613               130.1248
 Red. masses --      2.0125                 1.8837                 2.2137
 Frc consts  --      0.0070                 0.0094                 0.0221
 IR Inten    --      0.5675                 0.3335                 0.2015

                      7                      8                      9
                      A                      A                      A
 Frequencies --    180.1505               219.9068               229.9485
 Red. masses --      2.3182                 1.1861                 1.0750
 Frc consts  --      0.0443                 0.0338                 0.0335
 IR Inten    --      0.7318                 0.3148                 0.7814

                     10                     11                     12
                      A                      A                      A
 Frequencies --    239.9971               248.5535               293.0090
 Red. masses --      1.9600                 1.5360                 1.3970
 Frc consts  --      0.0665                 0.0559                 0.0707
 IR Inten    --      0.6369                 1.4615                 0.8369

                     13                     14                     15
                      A                      A                      A
 Frequencies --    302.5960               338.8568               376.8587
 Red. masses --      1.5367                 2.3952                 2.2823
 Frc consts  --      0.0829                 0.1620                 0.1910
 IR Inten    --      1.4016                 0.4348                 3.7054

                     16                     17                     18
                      A                      A                      A
 Frequencies --    386.1984               398.0682               431.8928
 Red. masses --      2.0561                 2.0056                 3.1569
 Frc consts  --      0.1807                 0.1872                 0.3469
 IR Inten    --      8.9431                 4.1648                 6.4289

                     19                     20                     21
                      A                      A                      A
 Frequencies --    460.4643               496.3952               539.0289
 Red. masses --      2.5278                 2.1651                 2.3578
 Frc consts  --      0.3158                 0.3143                 0.4036
 IR Inten    --      2.6476                 2.1928                 0.1095

                     22                     23                     24
                      A                      A                      A
 Frequencies --    753.8146               809.6578               818.5395
 Red. masses --      2.1664                 2.5799                 1.1640
 Frc consts  --      0.7253                 0.9964                 0.4595
 IR Inten    --      5.4021                49.5012                 1.1902

                     25                     26                     27
                      A                      A                      A
 Frequencies --    824.6179               865.9169               901.6183
 Red. masses --      1.1731                 2.1614                 1.9362
 Frc consts  --      0.4700                 0.9549                 0.9273
 IR Inten    --      1.6432                 1.3656                 2.8988

                     28                     29                     30
                      A                      A                      A
 Frequencies --    957.8567               967.0925              1018.2527
 Red. masses --      2.3054                 2.0593                 1.9507
 Frc consts  --      1.2463                 1.1347                 1.1917
 IR Inten    --      6.5164                24.2947                 1.6969

                     31                     32                     33
                      A                      A                      A
 Frequencies --   1045.7573              1073.2147              1074.1129
 Red. masses --      2.0062                 1.9745                 2.1855
 Frc consts  --      1.2926                 1.3399                 1.4856
 IR Inten    --     38.9062                40.4837                26.2229

                     34                     35                     36
                      A                      A                      A
 Frequencies --   1088.3169              1096.4076              1105.8290
 Red. masses --      2.4085                 1.7988                 2.3610
 Frc consts  --      1.6808                 1.2740                 1.7011
 IR Inten    --      5.2167                13.2729                17.4111

                     37                     38                     39
                      A                      A                      A
 Frequencies --   1129.2288              1136.0647              1171.7251
 Red. masses --      1.4145                 1.4154                 1.5562
 Frc consts  --      1.0627                 1.0763                 1.2588
 IR Inten    --      1.8220                 5.9137                 4.3109

                     40                     41                     42
                      A                      A                      A
 Frequencies --   1176.7651              1196.8690              1232.3511
 Red. masses --      1.6259                 1.8358                 2.0272
 Frc consts  --      1.3266                 1.5495                 1.8139
 IR Inten    --     10.7135                30.3858                40.9909

                     43                     44                     45
                      A                      A                      A
 Frequencies --   1258.9824              1266.5288              1302.3361
 Red. masses --      2.0094                 1.9287                 1.4415
 Frc consts  --      1.8765                 1.8228                 1.4405
 IR Inten    --     21.1447                15.5858                 8.6555

                     46                     47                     48
                      A                      A                      A
 Frequencies --   1313.9100              1332.4625              1350.2856
 Red. masses --      1.3949                 1.1793                 1.2945
 Frc consts  --      1.4188                 1.2336                 1.3906
 IR Inten    --     10.1113                 5.7359                12.6785

                     49                     50                     51
                      A                      A                      A
 Frequencies --   1364.2008              1389.8475              1404.8367
 Red. masses --      1.2780                 1.3365                 1.3531
 Frc consts  --      1.4014                 1.5211                 1.5734
 IR Inten    --     29.0073                22.6119                35.6714

                     52                     53                     54
                      A                      A                      A
 Frequencies --   1408.8426              1428.5716              1430.9174
 Red. masses --      1.3488                 1.2516                 1.2760
 Frc consts  --      1.5773                 1.5050                 1.5393
 IR Inten    --     32.4534                 7.3360                18.8216

                     55                     56                     57
                      A                      A                      A
 Frequencies --   1448.0148              1451.8705              1479.4322
 Red. masses --      1.3326                 1.3184                 1.2108
 Frc consts  --      1.6462                 1.6374                 1.5614
 IR Inten    --      3.6952                 6.3132                 3.3641

                     58                     59                     60
                      A                      A                      A
 Frequencies --   1486.1773              1504.6265              1507.7332
 Red. masses --      1.1872                 1.0780                 1.0786
 Frc consts  --      1.5450                 1.4379                 1.4446
 IR Inten    --      2.0905                 2.6874                 7.2038

                     61                     62                     63
                      A                      A                      A
 Frequencies --   1510.8807              1514.5609              1516.6715
 Red. masses --      1.0711                 1.0439                 1.0496
 Frc consts  --      1.4406                 1.4109                 1.4225
 IR Inten    --      1.9928                 1.7376                 5.0128

                     64                     65                     66
                      A                      A                      A
 Frequencies --   1519.2304              1521.9442              1526.7923
 Red. masses --      1.0617                 1.0558                 1.0691
 Frc consts  --      1.4438                 1.4409                 1.4683
 IR Inten    --     11.0024                 1.5152                 2.5017

                     67                     68                     69
                      A                      A                      A
 Frequencies --   1528.1655              1532.8280              1540.2829
 Red. masses --      1.0616                 1.0529                 1.0833
 Frc consts  --      1.4606                 1.4575                 1.5143
 IR Inten    --      4.1910                 9.5053                 5.0358

                     70                     71                     72
                      A                      A                      A
 Frequencies --   1541.7451              1543.5306              2902.2223
 Red. masses --      1.0492                 1.0958                 1.0733
 Frc consts  --      1.4693                 1.5382                 5.3264
 IR Inten    --     10.3824                 6.5847                39.7090

                     73                     74                     75
                      A                      A                      A
 Frequencies --   2906.4310              2911.7448              2924.2457
 Red. masses --      1.0733                 1.0722                 1.0654
 Frc consts  --      5.3418                 5.3561                 5.3675
 IR Inten    --     88.5378               113.7752                83.5595

                     76                     77                     78
                      A                      A                      A
 Frequencies --   2926.6044              2936.4990              3047.9395
 Red. masses --      1.0649                 1.0720                 1.0861
 Frc consts  --      5.3741                 5.4466                 5.9450
 IR Inten    --    246.5656               195.1493                20.8491

                     79                     80                     81
                      A                      A                      A
 Frequencies --   3051.5590              3052.2613              3052.9976
 Red. masses --      1.0641                 1.0378                 1.0368
 Frc consts  --      5.8383                 5.6966                 5.6938
 IR Inten    --     58.8244                10.5868                24.0105

                     82                     83                     84
                      A                      A                      A
 Frequencies --   3065.3302              3075.9489              3089.6788
 Red. masses --      1.0858                 1.0877                 1.0865
 Frc consts  --      6.0111                 6.0632                 6.1108
 IR Inten    --     42.5141                13.0188                15.6489

                     85                     86                     87
                      A                      A                      A
 Frequencies --   3093.9717              3098.8174              3105.9251
 Red. masses --      1.0768                 1.0899                 1.0731
 Frc consts  --      6.0730                 6.1661                 6.0994
 IR Inten    --     28.4526                67.8318                25.0388

                     88                     89                     90
                      A                      A                      A
 Frequencies --   3117.3346              3117.7118              3123.3175
 Red. masses --      1.1013                 1.1002                 1.1034
 Frc consts  --      6.3058                 6.3010                 6.3417
 IR Inten    --     56.2848                61.2425                39.4744

                     91                     92                     93
                      A                      A                      A
 Frequencies --   3126.8035              3134.0259              3149.4229
 Red. masses --      1.1011                 1.1021                 1.1022
 Frc consts  --      6.3426                 6.3780                 6.4411
 IR Inten    --     53.8349                44.8188                18.2753

 - Thermochemistry -
 -------------------
 Temperature   298.150 Kelvin.  Pressure   1.00000 Atm.
 Atom     1 has atomic number  6 and mass  12.00000

 Molecular mass:   158.17830 amu.
 Principal axes and moments of inertia in atomic units:
                           1         2         3
     Eigenvalues --  1268.476843024.835033708.37985
           X            0.99999   0.00266  -0.00192
           Y           -0.00266   1.00000  -0.00073
           Z            0.00192   0.00073   1.00000
 This molecule is an asymmetric top.
 Rotational symmetry number  1.
 Warning -- assumption of classical behavior for rotation
           may cause significant error
 Rotational temperatures (Kelvin)      0.06828     0.02863     0.02336
 Rotational constants (GHZ):           1.42276     0.59664     0.48667
 Zero-point vibrational energy     813121.2 (Joules/Mol)
                                  194.34063 (Kcal/Mol)
 Warning -- explicit consideration of  21 degrees of freedom as
           vibrations may cause significant error
 Vibrational temperatures:     34.19    65.36    75.48   110.32   132.17
          (Kelvin)            187.22   259.20   316.40   330.84   345.30
                              357.61   421.57   435.37   487.54   542.22
                              555.65   572.73   621.40   662.51   714.20
                              775.54  1084.57  1164.92  1177.70  1186.44
                             1245.86  1297.23  1378.14  1391.43  1465.04
                             1504.61  1544.12  1545.41  1565.85  1577.49
                             1591.04  1624.71  1634.54  1685.85  1693.10
                             1722.03  1773.08  1811.39  1822.25  1873.77
                             1890.42  1917.12  1942.76  1962.78  1999.68
                             2021.25  2027.01  2055.40  2058.77  2083.37
                             2088.92  2128.57  2138.28  2164.82  2169.29
                             2173.82  2179.12  2182.15  2185.83  2189.74
                             2196.71  2198.69  2205.40  2216.12  2218.23
                             2220.80  4175.65  4181.71  4189.35  4207.34
                             4210.73  4224.97  4385.31  4390.51  4391.52
                             4392.58  4410.33  4425.60  4445.36  4451.54
                             4458.51  4468.73  4485.15  4485.69  4493.76
                             4498.77  4509.16  4531.32

 Zero-point correction=                           0.309702 (Hartree/Particle)
 Thermal correction to Energy=                    0.324094
 Thermal correction to Enthalpy=                  0.325038
 Thermal correction to Gibbs Free Energy=         0.267580
 Sum of electronic and zero-point Energies=           -465.384840
 Sum of electronic and thermal Energies=              -465.370447
 Sum of electronic and thermal Enthalpies=            -465.369503
 Sum of electronic and thermal Free Energies=         -465.426961

                     E (Thermal)             CV                S
                      KCal/Mol        Cal/Mol-Kelvin    Cal/Mol-Kelvin
 Total                  203.372             52.083            120.931
 Electronic               0.000              0.000              0.000
 Translational            0.889              2.981             41.085
 Rotational               0.889              2.981             31.032
 Vibrational            201.595             46.122             48.814
 Vibration     1          0.593              1.985              6.292
 Vibration     2          0.595              1.979              5.007
 Vibration     3          0.596              1.977              4.722
 Vibration     4          0.599              1.965              3.974
 Vibration     5          0.602              1.955              3.620
 Vibration     6          0.612              1.923              2.944
 Vibration     7          0.629              1.867              2.327
 Vibration     8          0.647              1.811              1.960
 Vibration     9          0.652              1.795              1.879
 Vibration    10          0.657              1.779              1.803
 Vibration    11          0.662              1.765              1.741
 Vibration    12          0.688              1.687              1.457
 Vibration    13          0.694              1.669              1.403
 Vibration    14          0.719              1.598              1.218
 Vibration    15          0.747              1.519              1.052
 Vibration    16          0.755              1.500              1.015
 Vibration    17          0.764              1.474              0.970
 Vibration    18          0.793              1.401              0.852
 Vibration    19          0.818              1.338              0.765
 Vibration    20          0.852              1.258              0.667
 Vibration    21          0.894              1.164              0.567

 Optimization completed.
    -- Stationary point found.
 Normal termination of Gaussian 16 at Sun Oct 24 07:20:53 2021.
