 Gaussian 16, Revision C.01,
 Gaussian 16:  ES64L-G16RevC.01  3-Jul-2019

 ----------------------------------------------------
 # opt freq b3lyp/6-31g(d) scrf=(smd,solvent=toluene)
 ----------------------------------------------------

 ---------------
 CH3CH2CH2NCHCH3
 ---------------
 Symbolic Z-matrix:
 Charge =  0 Multiplicity = 1

 SCF Done:  E(RB3LYP) =  -463.149162635     A.U. after   15 cycles
 SCF Done:  E(RB3LYP) =  -463.202461387     A.U. after   13 cycles
 SCF Done:  E(RB3LYP) =  -463.249181995     A.U. after   13 cycles
 SCF Done:  E(RB3LYP) =  -463.265724985     A.U. after   11 cycles
 SCF Done:  E(RB3LYP) =  -463.273176437     A.U. after   11 cycles
 SCF Done:  E(RB3LYP) =  -463.276774234     A.U. after   11 cycles
 SCF Done:  E(RB3LYP) =  -463.279242242     A.U. after   13 cycles
 SCF Done:  E(RB3LYP) =  -463.280651429     A.U. after   11 cycles
 SCF Done:  E(RB3LYP) =  -463.282029612     A.U. after   11 cycles
 SCF Done:  E(RB3LYP) =  -463.282668951     A.U. after   12 cycles
 SCF Done:  E(RB3LYP) =  -463.283165017     A.U. after   10 cycles
 SCF Done:  E(RB3LYP) =  -463.283293698     A.U. after    9 cycles
 SCF Done:  E(RB3LYP) =  -463.283319842     A.U. after    9 cycles
 SCF Done:  E(RB3LYP) =  -463.283320207     A.U. after    7 cycles
 SCF Done:  E(RB3LYP) =  -463.283319149     A.U. after    9 cycles
 SCF Done:  E(RB3LYP) =  -463.283320651     A.U. after    8 cycles
 SCF Done:  E(RB3LYP) =  -463.283320661     A.U. after    8 cycles
 SCF Done:  E(RB3LYP) =  -463.283320670     A.U. after    9 cycles
 SCF Done:  E(RB3LYP) =  -463.283320796     A.U. after    7 cycles
 Optimization completed.
    -- Stationary point found.
 Normal termination of Gaussian 16 at Wed Sep 29 05:37:42 2021.

 --------------------------------------------------------------------
 #N Geom=AllCheck Guess=TCheck SCRF=Check GenChk RB3LYP/6-31G(d) Freq
 --------------------------------------------------------------------

 Structure from the checkpoint file:  "CH3CH2CH2NCHCH3.chk"
 ---------------
 CH3CH2CH2NCHCH3
 ---------------
 Charge =  0 Multiplicity = 1

                         Standard orientation:
 ---------------------------------------------------------------------
 Center     Atomic      Atomic             Coordinates (Angstroms)
 Number     Number       Type             X           Y           Z
 ---------------------------------------------------------------------
      1          6           0       -3.046366   -0.197018   -0.355616
      2          1           0       -3.570545   -0.964955    0.225661
      3          1           0       -3.559840    0.756753   -0.184412
      4          1           0       -3.157376   -0.448877   -1.418432
      5          6           0       -1.562844   -0.112080    0.056296
      6          6           0       -1.463964    0.197436    1.558241
      7          1           0       -0.422959    0.263961    1.883937
      8          1           0       -1.964153    1.146254    1.792735
      9          1           0       -1.947069   -0.589575    2.150483
     10          6           0       -0.917835   -1.488101   -0.266096
     11          1           0       -0.892198   -1.627300   -1.362429
     12          1           0       -1.587907   -2.259738    0.140377
     13          6           0       -0.933391    1.036620   -0.778382
     14          1           0       -1.020438    0.769558   -1.841607
     15          1           0       -1.536642    1.949901   -0.621505
     16          7           0        0.381879   -1.708536    0.348078
     17          7           0        0.475332    1.271707   -0.505955
     18          6           0        1.347324   -2.062280   -0.396306
     19          1           0        1.223638   -2.181262   -1.486827
     20          6           0        0.823220    2.428976   -0.113404
     21          1           0        0.083597    3.237874    0.024420
     22          6           0        2.719630   -2.330011    0.142893
     23          1           0        3.047201   -3.347068   -0.111757
     24          1           0        3.446472   -1.640295   -0.307606
     25          1           0        2.736485   -2.207080    1.229257
     26          6           0        2.248688    2.783328    0.185227
     27          1           0        2.582295    3.612164   -0.453968
     28          1           0        2.350817    3.125437    1.223912
     29          1           0        2.901370    1.920847    0.025782
 ---------------------------------------------------------------------

 SCF Done:  E(RB3LYP) =  -463.283320796     A.U. after    1 cycles

 The electronic state is 1-A.
 Alpha  occ. eigenvalues --  -14.31531 -14.31038 -10.22088 -10.21510 -10.19742
 Alpha  occ. eigenvalues --  -10.19551 -10.19135 -10.17672 -10.17285 -10.16785
 Alpha  occ. eigenvalues --  -10.15861  -0.91242  -0.90205  -0.80467  -0.73691
 Alpha  occ. eigenvalues --   -0.72731  -0.67440  -0.66003  -0.65658  -0.55283
 Alpha  occ. eigenvalues --   -0.54519  -0.52715  -0.47662  -0.47222  -0.45696
 Alpha  occ. eigenvalues --   -0.44146  -0.42302  -0.41214  -0.40968  -0.40518
 Alpha  occ. eigenvalues --   -0.39014  -0.38250  -0.37310  -0.36783  -0.36618
 Alpha  occ. eigenvalues --   -0.35378  -0.33341  -0.32111  -0.31699  -0.27960
 Alpha  occ. eigenvalues --   -0.26767  -0.23819  -0.23516
 Alpha virt. eigenvalues --    0.00917   0.02106   0.09208   0.11659   0.12201
 Alpha virt. eigenvalues --    0.13063   0.13682   0.14370   0.15327   0.16304
 Alpha virt. eigenvalues --    0.16649   0.17566   0.17710   0.18077   0.18530

 Mulliken charges:
               1
     1  C   -0.460561
     2  H    0.147584
     3  H    0.145600
     4  H    0.142687
     5  C    0.084682
     6  C   -0.452992
     7  H    0.167831
     8  H    0.130324
     9  H    0.140438
    10  C   -0.140470
    11  H    0.114853
    12  H    0.142959
    13  C   -0.146457
    14  H    0.141275
    15  H    0.114544
    16  N   -0.357695
    17  N   -0.357446
    18  C    0.109768
    19  H    0.114558
    20  C    0.097232
    21  H    0.116420
    22  C   -0.503020
    23  H    0.162296
    24  H    0.168738
    25  H    0.170656
    26  C   -0.501960
    27  H    0.166211
    28  H    0.168710
    29  H    0.173233
 Sum of Mulliken charges =  -0.00000

 Dipole moment (field-independent basis, Debye):
    X=              0.0692    Y=              1.1420    Z=             -1.0229  Tot=              1.5347
 Quadrupole moment (field-independent basis, Debye-Ang):
   XX=            -64.5787   YY=            -63.0071   ZZ=            -70.6375
   XY=              0.1937   XZ=              0.1175   YZ=              3.1952

  Exact polarizability:     152.070       1.012     128.313       0.525       8.838     106.337
 Approx polarizability:     168.791       0.379     153.521      -4.076      14.021     138.490

                      1                      2                      3
                      A                      A                      A
 Frequencies --     31.5937                59.0320                74.5447
 Red. masses --      2.4314                 3.1473                 2.2959
 Frc consts  --      0.0014                 0.0065                 0.0075
 IR Inten    --      1.7843                 0.6369                 9.4346

                      4                      5                      6
                      A                      A                      A
 Frequencies --     92.4813               136.3440               148.6980
 Red. masses --      2.4050                 1.5513                 1.6407
 Frc consts  --      0.0121                 0.0170                 0.0214
 IR Inten    --      2.4889                 0.9379                 1.6239

                      7                      8                      9
                      A                      A                      A
 Frequencies --    204.4973               206.2205               222.1583
 Red. masses --      1.5571                 1.6277                 1.1063
 Frc consts  --      0.0384                 0.0408                 0.0322
 IR Inten    --      2.3332                 0.6873                 0.3181

                     10                     11                     12
                      A                      A                      A
 Frequencies --    256.3892               263.1426               274.0574
 Red. masses --      1.4952                 3.2655                 1.6710
 Frc consts  --      0.0579                 0.1332                 0.0739
 IR Inten    --      0.2555                 1.1657                 1.0803

                     13                     14                     15
                      A                      A                      A
 Frequencies --    308.8811               323.5888               328.7123
 Red. masses --      2.6940                 2.4856                 2.9131
 Frc consts  --      0.1514                 0.1533                 0.1855
 IR Inten    --      3.6478                 7.7337                 5.8995

                     16                     17                     18
                      A                      A                      A
 Frequencies --    350.2568               391.6170               484.0826
 Red. masses --      2.4762                 2.1098                 2.5088
 Frc consts  --      0.1790                 0.1906                 0.3464
 IR Inten    --      2.0116                 0.6130                 4.9541

                     19                     20                     21
                      A                      A                      A
 Frequencies --    491.0110               563.9586               598.6980
 Red. masses --      2.6274                 2.7623                 3.0725
 Frc consts  --      0.3732                 0.5176                 0.6489
 IR Inten    --     10.6565                 2.5894                 6.7811

                     22                     23                     24
                      A                      A                      A
 Frequencies --    768.7329               867.4283               880.0218
 Red. masses --      2.8934                 1.3780                 1.4701
 Frc consts  --      1.0074                 0.6109                 0.6708
 IR Inten    --      3.1749                 9.5704                 8.0116

                     25                     26                     27
                      A                      A                      A
 Frequencies --    913.9456               922.7522               928.9632
 Red. masses --      1.8965                 1.6912                 1.8939
 Frc consts  --      0.9334                 0.8484                 0.9629
 IR Inten    --     11.0943                 8.1561                 0.4461

                     28                     29                     30
                      A                      A                      A
 Frequencies --    944.1742               960.6844               969.0438
 Red. masses --      1.6908                 1.4142                 1.4091
 Frc consts  --      0.8880                 0.7690                 0.7796
 IR Inten    --      3.8173                 2.8754                 2.9963

                     31                     32                     33
                      A                      A                      A
 Frequencies --   1042.6437              1050.6910              1085.0654
 Red. masses --      1.5896                 1.7932                 3.1643
 Frc consts  --      1.0181                 1.1663                 2.1951
 IR Inten    --      2.1372                 5.0755                11.7090

                     34                     35                     36
                      A                      A                      A
 Frequencies --   1090.4783              1106.5769              1108.2465
 Red. masses --      3.2831                 1.6366                 1.6255
 Frc consts  --      2.3002                 1.1808                 1.1763
 IR Inten    --     11.2919                 0.3067                 0.1275

                     37                     38                     39
                      A                      A                      A
 Frequencies --   1160.2732              1162.8887              1201.9140
 Red. masses --      2.1882                 2.1755                 2.6198
 Frc consts  --      1.7356                 1.7333                 2.2298
 IR Inten    --     15.5723                11.9417                 6.6364

                     40                     41                     42
                      A                      A                      A
 Frequencies --   1229.3471              1241.2601              1315.4512
 Red. masses --      1.7833                 1.6908                 1.5149
 Frc consts  --      1.5879                 1.5348                 1.5445
 IR Inten    --      2.0283                 3.4147                 7.6958

                     43                     44                     45
                      A                      A                      A
 Frequencies --   1339.2141              1371.6745              1395.0922
 Red. masses --      1.4180                 1.2168                 1.2323
 Frc consts  --      1.4984                 1.3489                 1.4131
 IR Inten    --      3.7975                12.8568                14.5249

                     46                     47                     48
                      A                      A                      A
 Frequencies --   1407.1004              1415.0597              1426.8899
 Red. masses --      1.2625                 1.2823                 1.2530
 Frc consts  --      1.4728                 1.5128                 1.5031
 IR Inten    --     10.0582                 9.2978                 2.7549

                     49                     50                     51
                      A                      A                      A
 Frequencies --   1434.9151              1438.1941              1452.3211
 Red. masses --      1.3692                 1.3672                 1.2889
 Frc consts  --      1.6610                 1.6662                 1.6017
 IR Inten    --     14.7471                20.1516                 7.9020

                     52                     53                     54
                      A                      A                      A
 Frequencies --   1497.2903              1498.2260              1499.2369
 Red. masses --      1.0547                 1.0555                 1.0460
 Frc consts  --      1.3931                 1.3959                 1.3852
 IR Inten    --      7.0275                26.9040                14.2558

                     55                     56                     57
                      A                      A                      A
 Frequencies --   1501.5025              1502.3495              1509.5312
 Red. masses --      1.0471                 1.0897                 1.0766
 Frc consts  --      1.3908                 1.4492                 1.4454
 IR Inten    --      8.1305                 8.7409                 8.2270

                     58                     59                     60
                      A                      A                      A
 Frequencies --   1515.3045              1520.1591              1528.2588
 Red. masses --      1.0472                 1.0706                 1.0546
 Frc consts  --      1.4167                 1.4577                 1.4512
 IR Inten    --      0.3388                 3.8540                 3.0059

                     61                     62                     63
                      A                      A                      A
 Frequencies --   1536.3958              1764.9897              1771.3616
 Red. masses --      1.0590                 7.6769                 7.8232
 Frc consts  --      1.4728                14.0903                14.4626
 IR Inten    --     17.3498               100.8765               124.9513

                     64                     65                     66
                      A                      A                      A
 Frequencies --   2952.1022              2957.0295              2984.6037
 Red. masses --      1.0678                 1.0690                 1.0830
 Frc consts  --      5.4831                 5.5075                 5.6840
 IR Inten    --     58.7133                76.9186                92.8970

                     67                     68                     69
                      A                      A                      A
 Frequencies --   2990.8388              3034.4348              3037.8612
 Red. masses --      1.0832                 1.0865                 1.0479
 Frc consts  --      5.7088                 5.8942                 5.6980
 IR Inten    --     90.6257                26.1751                28.6361

                     70                     71                     72
                      A                      A                      A
 Frequencies --   3039.9399              3040.3542              3041.1658
 Red. masses --      1.0399                 1.0806                 1.0390
 Frc consts  --      5.6620                 5.8852                 5.6617
 IR Inten    --     19.9162                83.2111                20.0978

                     73                     74                     75
                      A                      A                      A
 Frequencies --   3045.3511              3089.7518              3091.0960
 Red. masses --      1.0436                 1.1000                 1.0999
 Frc consts  --      5.7022                 6.1870                 6.1917
 IR Inten    --     37.0882                21.6855                17.8947

                     76                     77                     78
                      A                      A                      A
 Frequencies --   3099.3104              3101.7990              3111.0074
 Red. masses --      1.1015                 1.1012                 1.1021
 Frc consts  --      6.2337                 6.2424                 6.2845
 IR Inten    --     29.2935                48.5062                65.9722

                     79                     80                     81
                      A                      A                      A
 Frequencies --   3147.7576              3147.9661              3148.7715
 Red. masses --      1.0978                 1.1007                 1.1013
 Frc consts  --      6.4086                 6.4266                 6.4333
 IR Inten    --     24.3172                19.1167                16.8488

 - Thermochemistry -
 -------------------
 Temperature   298.150 Kelvin.  Pressure   1.00000 Atm.
 Atom     1 has atomic number  6 and mass  12.00000

 Molecular mass:   154.14700 amu.
 Principal axes and moments of inertia in atomic units:
                           1         2         3
     Eigenvalues --  1901.026701944.790813334.50146
           X            0.99993   0.01126   0.00388
           Y           -0.01130   0.99987   0.01165
           Z           -0.00375  -0.01170   0.99992
 This molecule is an asymmetric top.
 Rotational symmetry number  1.
 Warning -- assumption of classical behavior for rotation
           may cause significant error
 Rotational temperatures (Kelvin)      0.04556     0.04454     0.02598
 Rotational constants (GHZ):           0.94935     0.92799     0.54123
 Zero-point vibrational energy     682749.2 (Joules/Mol)
                                  163.18098 (Kcal/Mol)
 Warning -- explicit consideration of  21 degrees of freedom as
           vibrations may cause significant error
 Vibrational temperatures:     45.46    84.93   107.25   133.06   196.17
          (Kelvin)            213.94   294.23   296.71   319.64   368.89
                              378.60   394.31   444.41   465.57   472.94
                              503.94   563.45   696.49   706.46   811.41
                              861.39  1106.04  1248.04  1266.16  1314.96
                             1327.63  1336.57  1358.46  1382.21  1394.24
                             1500.13  1511.71  1561.17  1568.96  1592.12
                             1594.52  1669.37  1673.14  1729.29  1768.76
                             1785.90  1892.64  1926.83  1973.53  2007.23
                             2024.50  2035.96  2052.98  2064.52  2069.24
                             2089.57  2154.27  2155.61  2157.07  2160.33
                             2161.55  2171.88  2180.19  2187.17  2198.82
                             2210.53  2539.43  2548.59  4247.42  4254.51
                             4294.18  4303.15  4365.87  4370.80  4373.80
                             4374.39  4375.56  4381.58  4445.46  4447.40
                             4459.22  4462.80  4476.05  4528.92  4529.22
                             4530.38

 Zero-point correction=                           0.260045 (Hartree/Particle)
 Thermal correction to Energy=                    0.273978
 Thermal correction to Enthalpy=                  0.274923
 Thermal correction to Gibbs Free Energy=         0.219372
 Sum of electronic and zero-point Energies=           -463.023275
 Sum of electronic and thermal Energies=              -463.009342
 Sum of electronic and thermal Enthalpies=            -463.008398
 Sum of electronic and thermal Free Energies=         -463.063949

                     E (Thermal)             CV                S
                      KCal/Mol        Cal/Mol-Kelvin    Cal/Mol-Kelvin
 Total                  171.924             50.149            116.915
 Electronic               0.000              0.000              0.000
 Translational            0.889              2.981             41.008
 Rotational               0.889              2.981             30.889
 Vibrational            170.147             44.187             45.018
 Vibration     1          0.594              1.983              5.727
 Vibration     2          0.596              1.974              4.489
 Vibration     3          0.599              1.966              4.030
 Vibration     4          0.602              1.955              3.607
 Vibration     5          0.614              1.917              2.855
 Vibration     6          0.618              1.904              2.689
 Vibration     7          0.640              1.833              2.092
 Vibration     8          0.641              1.831              2.077
 Vibration     9          0.648              1.807              1.941
 Vibration    10          0.666              1.752              1.686
 Vibration    11          0.670              1.740              1.641
 Vibration    12          0.676              1.721              1.570
 Vibration    13          0.698              1.657              1.368
 Vibration    14          0.708              1.628              1.292
 Vibration    15          0.712              1.618              1.266
 Vibration    16          0.727              1.575              1.165
 Vibration    17          0.759              1.488              0.994
 Vibration    18          0.840              1.285              0.699
 Vibration    19          0.847              1.270              0.681
 Vibration    20          0.920              1.109              0.516
 Vibration    21          0.957              1.035              0.452

 Optimization completed.
    -- Stationary point found.
 Normal termination of Gaussian 16 at Wed Sep 29 05:43:53 2021.
