 Gaussian 16, Revision C.01,
 Gaussian 16:  ES64L-G16RevC.01  3-Jul-2019

 ----------------------------------------------------
 # opt freq b3lyp/6-31g(d) scrf=(smd,solvent=toluene)
 ----------------------------------------------------

 ------------------
 CH3CH2CH2NMeCH2CH3
 ------------------
 Symbolic Z-matrix:
 Charge =  0 Multiplicity = 1

 SCF Done:  E(RB3LYP) =  -544.237517402     A.U. after   11 cycles
 SCF Done:  E(RB3LYP) =  -544.280409135     A.U. after   10 cycles
 SCF Done:  E(RB3LYP) =  -544.295846837     A.U. after   10 cycles
 SCF Done:  E(RB3LYP) =  -544.301700765     A.U. after   10 cycles
 SCF Done:  E(RB3LYP) =  -544.306269517     A.U. after   10 cycles
 SCF Done:  E(RB3LYP) =  -544.307862914     A.U. after   12 cycles
 SCF Done:  E(RB3LYP) =  -544.309883763     A.U. after   10 cycles
 SCF Done:  E(RB3LYP) =  -544.311401869     A.U. after   10 cycles
 SCF Done:  E(RB3LYP) =  -544.312296686     A.U. after   10 cycles
 SCF Done:  E(RB3LYP) =  -544.312833819     A.U. after    9 cycles
 SCF Done:  E(RB3LYP) =  -544.312885388     A.U. after    8 cycles
 SCF Done:  E(RB3LYP) =  -544.312897335     A.U. after    8 cycles
 SCF Done:  E(RB3LYP) =  -544.312902270     A.U. after    7 cycles
 SCF Done:  E(RB3LYP) =  -544.312902583     A.U. after    7 cycles
 SCF Done:  E(RB3LYP) =  -544.312902739     A.U. after    6 cycles
 SCF Done:  E(RB3LYP) =  -544.312902698     A.U. after    6 cycles
 Optimization completed.
    -- Stationary point found.
 Normal termination of Gaussian 16 at Mon Oct 25 03:49:05 2021.

 --------------------------------------------------------------------
 #N Geom=AllCheck Guess=TCheck SCRF=Check GenChk RB3LYP/6-31G(d) Freq
 --------------------------------------------------------------------

 Structure from the checkpoint file:  "/home/rong/g16/learning/CH3CH2CH2NMeCHCH3.chk"
 ------------------
 CH3CH2CH2NMeCH2CH3
 ------------------
 Charge =  0 Multiplicity = 1

                         Standard orientation:
 ---------------------------------------------------------------------
 Center     Atomic      Atomic             Coordinates (Angstroms)
 Number     Number       Type             X           Y           Z
 ---------------------------------------------------------------------
      1          6           0       -0.054278    2.640825   -1.297955
      2          1           0       -0.951845    3.255060   -1.151420
      3          1           0        0.815751    3.304123   -1.222858
      4          1           0       -0.086263    2.246820   -2.322215
      5          6           0        0.022671    1.502785   -0.254156
      6          6           0        0.226813    2.152548    1.127064
      7          1           0        0.401240    1.416065    1.913794
      8          1           0        1.086952    2.834079    1.112885
      9          1           0       -0.652291    2.747240    1.406606
     10          6           0       -1.341954    0.750432   -0.364884
     11          1           0       -1.572177    0.680662   -1.435645
     12          1           0       -2.116743    1.410745    0.073712
     13          6           0        1.222791    0.593111   -0.654086
     14          1           0        0.908831   -0.003064   -1.519422
     15          1           0        2.034126    1.246304   -1.017341
     16          7           0       -1.442036   -0.615952    0.150523
     17          7           0        1.740873   -0.303088    0.388672
     18          6           0       -1.454174   -0.718905    1.604975
     19          1           0       -1.669647   -1.754560    1.891826
     20          1           0       -0.468799   -0.466580    2.001617
     21          1           0       -2.205009   -0.069669    2.093763
     22          6           0        2.973514    0.174556    0.999071
     23          1           0        2.817346    1.162445    1.443806
     24          1           0        3.272938   -0.506580    1.804883
     25          1           0        3.824335    0.262335    0.296319
     26          6           0        1.794290   -1.718954    0.010246
     27          1           0        2.002945   -2.294155    0.923092
     28          1           0        0.786375   -1.996826   -0.313322
     29          6           0        2.817102   -2.114786   -1.068441
     30          1           0        3.847817   -1.915725   -0.752530
     31          1           0        2.740497   -3.188387   -1.282337
     32          1           0        2.644913   -1.578259   -2.009526
     33          6           0       -2.528218   -1.377827   -0.480947
     34          1           0       -2.425888   -2.420343   -0.152062
     35          1           0       -2.347816   -1.373639   -1.563868
     36          6           0       -3.969212   -0.911323   -0.212182
     37          1           0       -4.677721   -1.570022   -0.729756
     38          1           0       -4.213964   -0.938518    0.855952
     39          1           0       -4.143826    0.108961   -0.572547
 ---------------------------------------------------------------------

 SCF Done:  E(RB3LYP) =  -544.312902698     A.U. after    1 cycles

 The electronic state is 1-A.
 Alpha  occ. eigenvalues --  -14.31056 -14.30664 -10.19664 -10.19188 -10.19035
 Alpha  occ. eigenvalues --  -10.18861 -10.18770 -10.18425 -10.18309 -10.16463
 Alpha  occ. eigenvalues --  -10.16459 -10.16159 -10.15869  -0.90566  -0.89605
 Alpha  occ. eigenvalues --   -0.79672  -0.73216  -0.72818  -0.68719  -0.68483
 Alpha  occ. eigenvalues --   -0.66958  -0.63952  -0.63868  -0.57291  -0.56007
 Alpha  occ. eigenvalues --   -0.51755  -0.47166  -0.46829  -0.46095  -0.44976
 Alpha  occ. eigenvalues --   -0.44184  -0.42635  -0.41521  -0.41062  -0.40312
 Alpha  occ. eigenvalues --   -0.39652  -0.38842  -0.37797  -0.37606  -0.37070
 Alpha  occ. eigenvalues --   -0.36689  -0.36069  -0.35377  -0.34884  -0.34251
 Alpha  occ. eigenvalues --   -0.33213  -0.32837  -0.32446  -0.31155  -0.30620
 Alpha  occ. eigenvalues --   -0.30071  -0.19595  -0.18810
 Alpha virt. eigenvalues --    0.07779   0.10272   0.11005   0.11910   0.12863
 Alpha virt. eigenvalues --    0.13733   0.14331   0.14516   0.14860   0.15124
 Alpha virt. eigenvalues --    0.15883   0.16104   0.16962   0.17348   0.17561

 Mulliken charges:
               1
     1  C   -0.467580
     2  H    0.143206
     3  H    0.143009
     4  H    0.140621
     5  C    0.110323
     6  C   -0.465480
     7  H    0.163774
     8  H    0.135963
     9  H    0.135406
    10  C   -0.124209
    11  H    0.129425
    12  H    0.107693
    13  C   -0.128975
    14  H    0.136236
    15  H    0.117184
    16  N   -0.371530
    17  N   -0.370309
    18  C   -0.314807
    19  H    0.142284
    20  H    0.173253
    21  H    0.117382
    22  C   -0.313197
    23  H    0.152555
    24  H    0.145702
    25  H    0.120611
    26  C   -0.136999
    27  H    0.129377
    28  H    0.155406
    29  C   -0.464931
    30  H    0.146739
    31  H    0.141959
    32  H    0.147233
    33  C   -0.134536
    34  H    0.137757
    35  H    0.138020
    36  C   -0.464687
    37  H    0.144015
    38  H    0.151204
    39  H    0.150901
 Sum of Mulliken charges =  -0.00000

 Dipole moment (field-independent basis, Debye):
    X=             -0.2688    Y=              0.0415    Z=             -0.3491  Tot=              0.4425
 Quadrupole moment (field-independent basis, Debye-Ang):
   XX=            -84.1880   YY=            -85.1846   ZZ=            -85.5904
   XY=              1.0730   XZ=              0.9975   YZ=             -0.5295

  Exact polarizability:     160.999       1.287     157.768       2.645      -0.733     140.323
 Approx polarizability:     178.044       1.475     182.997       2.884      -0.678     174.962

                      1                      2                      3
                      A                      A                      A
 Frequencies --     42.0770                54.3234                72.7337
 Red. masses --      2.8951                 2.9537                 3.1853
 Frc consts  --      0.0030                 0.0051                 0.0099
 IR Inten    --      0.7431                 0.0741                 0.0310

                      4                      5                      6
                      A                      A                      A
 Frequencies --     90.6423               105.9612               113.4572
 Red. masses --      2.3804                 2.4441                 2.2216
 Frc consts  --      0.0115                 0.0162                 0.0168
 IR Inten    --      0.1615                 0.0276                 0.0644

                      7                      8                      9
                      A                      A                      A
 Frequencies --    153.9316               184.2750               216.9393
 Red. masses --      2.1165                 1.8441                 1.5392
 Frc consts  --      0.0295                 0.0369                 0.0427
 IR Inten    --      0.4346                 2.1791                 0.4492

                     10                     11                     12
                      A                      A                      A
 Frequencies --    218.7053               226.9178               237.6861
 Red. masses --      1.1999                 1.1604                 1.4368
 Frc consts  --      0.0338                 0.0352                 0.0478
 IR Inten    --      0.4379                 0.3045                 0.7258

                     13                     14                     15
                      A                      A                      A
 Frequencies --    243.4958               259.6490               267.4286
 Red. masses --      1.4803                 1.6393                 1.2670
 Frc consts  --      0.0517                 0.0651                 0.0534
 IR Inten    --      2.7742                 0.6657                 1.0387

                     16                     17                     18
                      A                      A                      A
 Frequencies --    272.9541               285.9990               332.8422
 Red. masses --      1.4115                 1.8132                 2.6491
 Frc consts  --      0.0620                 0.0874                 0.1729
 IR Inten    --      0.5695                 0.5972                 0.8424

                     19                     20                     21
                      A                      A                      A
 Frequencies --    352.8877               377.2287               422.0041
 Red. masses --      2.2979                 2.0096                 2.1563
 Frc consts  --      0.1686                 0.1685                 0.2263
 IR Inten    --      3.4469                 1.5200                 8.0111

                     22                     23                     24
                      A                      A                      A
 Frequencies --    432.4860               454.2615               470.6045
 Red. masses --      1.8097                 2.2096                 2.2037
 Frc consts  --      0.1994                 0.2686                 0.2876
 IR Inten    --      0.4293                 2.1085                 1.2881

                     25                     26                     27
                      A                      A                      A
 Frequencies --    479.8203               537.6528               558.9468
 Red. masses --      2.4563                 2.5773                 2.6719
 Frc consts  --      0.3332                 0.4389                 0.4918
 IR Inten    --      1.4552                19.0302                 0.3693

                     28                     29                     30
                      A                      A                      A
 Frequencies --    776.9448               799.6600               805.0144
 Red. masses --      2.8074                 1.1802                 1.1880
 Frc consts  --      0.9985                 0.4447                 0.4536
 IR Inten    --      1.3659                 1.9248                 5.7184

                     31                     32                     33
                      A                      A                      A
 Frequencies --    813.2595               820.6003               886.2400
 Red. masses --      3.0827                 3.3748                 2.1687
 Frc consts  --      1.2013                 1.3390                 1.0036
 IR Inten    --     34.1979                 1.6006                 6.9444

                     34                     35                     36
                      A                      A                      A
 Frequencies --    912.2581               933.1065               947.0894
 Red. masses --      2.0344                 1.9788                 1.8480
 Frc consts  --      0.9975                 1.0151                 0.9766
 IR Inten    --     14.5273                 3.7284                 3.9587

                     37                     38                     39
                      A                      A                      A
 Frequencies --    952.0113               964.9551              1020.8236
 Red. masses --      1.6291                 2.1673                 1.8848
 Frc consts  --      0.8699                 1.1890                 1.1572
 IR Inten    --      2.5538                 6.7165                16.5353

                     40                     41                     42
                      A                      A                      A
 Frequencies --   1042.0803              1055.5389              1064.0525
 Red. masses --      1.4335                 2.1485                 1.9553
 Frc consts  --      0.9171                 1.4104                 1.3044
 IR Inten    --     10.3324                46.0642                42.8989

                     43                     44                     45
                      A                      A                      A
 Frequencies --   1092.8600              1098.8173              1109.6116
 Red. masses --      2.1751                 2.0778                 1.6509
 Frc consts  --      1.5306                 1.4781                 1.1976
 IR Inten    --     41.1264                33.1131                28.0656

                     46                     47                     48
                      A                      A                      A
 Frequencies --   1111.4579              1157.4012              1162.2028
 Red. masses --      1.6733                 1.4325                 1.5944
 Frc consts  --      1.2179                 1.1306                 1.2689
 IR Inten    --     17.5410                11.6536                24.8947

                     49                     50                     51
                      A                      A                      A
 Frequencies --   1167.7014              1187.2695              1227.0667
 Red. masses --      1.7280                 1.7892                 2.0648
 Frc consts  --      1.3883                 1.4859                 1.8317
 IR Inten    --      5.9161                12.6930                 5.2194

                     52                     53                     54
                      A                      A                      A
 Frequencies --   1253.1246              1255.8998              1279.3992
 Red. masses --      2.2507                 1.9820                 2.5483
 Frc consts  --      2.0824                 1.8419                 2.4577
 IR Inten    --     18.2827                11.8792                 7.6895

                     55                     56                     57
                      A                      A                      A
 Frequencies --   1292.0188              1357.6983              1369.1250
 Red. masses --      2.6941                 1.3587                 1.3392
 Frc consts  --      2.6497                 1.4756                 1.4791
 IR Inten    --     21.6894                14.8004                 4.4440

                     58                     59                     60
                      A                      A                      A
 Frequencies --   1375.0003              1392.1066              1398.4321
 Red. masses --      1.3317                 1.2639                 1.3443
 Frc consts  --      1.4834                 1.4431                 1.5489
 IR Inten    --     16.9992                13.2950                11.6621

                     61                     62                     63
                      A                      A                      A
 Frequencies --   1402.4860              1413.4456              1423.4737
 Red. masses --      1.2654                 1.2395                 1.2489
 Frc consts  --      1.4665                 1.4590                 1.4910
 IR Inten    --     33.9937                16.4642                 2.3519

                     64                     65                     66
                      A                      A                      A
 Frequencies --   1429.6769              1430.1016              1432.9766
 Red. masses --      1.2496                 1.2525                 1.2438
 Frc consts  --      1.5049                 1.5093                 1.5048
 IR Inten    --      8.2715                23.8928                 1.9697

                     67                     68                     69
                      A                      A                      A
 Frequencies --   1460.0051              1476.6097              1483.1982
 Red. masses --      1.2465                 1.1688                 1.1589
 Frc consts  --      1.5655                 1.5015                 1.5021
 IR Inten    --     14.9978                 1.0948                 1.4564

                     70                     71                     72
                      A                      A                      A
 Frequencies --   1500.4607              1501.6015              1509.9069
 Red. masses --      1.0742                 1.0752                 1.0516
 Frc consts  --      1.4249                 1.4285                 1.4125
 IR Inten    --      2.2910                 1.2154                 0.7825

                     73                     74                     75
                      A                      A                      A
 Frequencies --   1512.4925              1514.6196              1516.2985
 Red. masses --      1.0655                 1.0501                 1.0645
 Frc consts  --      1.4361                 1.4193                 1.4419
 IR Inten    --      1.1310                 2.8483                 9.4857

                     76                     77                     78
                      A                      A                      A
 Frequencies --   1518.6613              1519.8938              1521.1935
 Red. masses --      1.0477                 1.0540                 1.0490
 Frc consts  --      1.4237                 1.4345                 1.4302
 IR Inten    --      0.2853                 6.3804                 5.1483

                     79                     80                     81
                      A                      A                      A
 Frequencies --   1523.1822              1530.1832              1534.1594
 Red. masses --      1.0601                 1.0546                 1.0642
 Frc consts  --      1.4492                 1.4548                 1.4758
 IR Inten    --      1.9758                 7.7611                 3.4380

                     82                     83                     84
                      A                      A                      A
 Frequencies --   1535.7841              1537.0011              1543.2067
 Red. masses --      1.0776                 1.0813                 1.0522
 Frc consts  --      1.4975                 1.5051                 1.4763
 IR Inten    --      5.9300                 7.0543                 0.4658

                     85                     86                     87
                      A                      A                      A
 Frequencies --   1551.9668              2917.9066              2944.0492
 Red. masses --      1.0500                 1.0721                 1.0621
 Frc consts  --      1.4900                 5.3781                 5.4236
 IR Inten    --     20.6411                96.2950               123.2756

                     88                     89                     90
                      A                      A                      A
 Frequencies --   2951.6877              2975.6939              3033.9755
 Red. masses --      1.0609                 1.0700                 1.0636
 Frc consts  --      5.4460                 5.5823                 5.7682
 IR Inten    --    113.7717                84.5290                44.8885

                     91                     92                     93
                      A                      A                      A
 Frequencies --   3034.1503              3034.5719              3043.7944
 Red. masses --      1.0558                 1.0462                 1.0422
 Frc consts  --      5.7265                 5.6765                 5.6891
 IR Inten    --     61.3227                 7.8178                56.4546

                     94                     95                     96
                      A                      A                      A
 Frequencies --   3044.2118              3048.5594              3053.8471
 Red. masses --      1.0370                 1.0362                 1.0859
 Frc consts  --      5.6623                 5.6740                 5.9666
 IR Inten    --     21.6628                27.7733                24.3301

                     97                     98                     99
                      A                      A                      A
 Frequencies --   3068.1828              3070.4488              3073.1220
 Red. masses --      1.0917                 1.1027                 1.0723
 Frc consts  --      6.0549                 6.1251                 5.9668
 IR Inten    --     37.2434                43.6319                33.1429

                    100                    101                    102
                      A                      A                      A
 Frequencies --   3085.4560              3092.9927              3097.8125
 Red. masses --      1.0770                 1.1015                 1.1016
 Frc consts  --      6.0407                 6.2084                 6.2284
 IR Inten    --     41.4343                32.2378                57.2463

                    103                    104                    105
                      A                      A                      A
 Frequencies --   3098.3399              3105.9743              3106.3169
 Red. masses --      1.0971                 1.1010                 1.1016
 Frc consts  --      6.2054                 6.2577                 6.2630
 IR Inten    --      1.2095                49.0230                74.5294

                    106                    107                    108
                      A                      A                      A
 Frequencies --   3110.3325              3119.6884              3120.8344
 Red. masses --      1.1012                 1.1010                 1.1033
 Frc consts  --      6.2764                 6.3134                 6.3310
 IR Inten    --     52.2777                65.7096                49.9629

                    109                    110                    111
                      A                      A                      A
 Frequencies --   3121.3439              3140.7691              3158.4735
 Red. masses --      1.1015                 1.0991                 1.0942
 Frc consts  --      6.3227                 6.3879                 6.4313
 IR Inten    --     52.8326                30.3664                24.0266

 - Thermochemistry -
 -------------------
 Temperature   298.150 Kelvin.  Pressure   1.00000 Atm.
 Atom     1 has atomic number  6 and mass  12.00000

 Molecular mass:   186.20960 amu.
 Principal axes and moments of inertia in atomic units:
                           1         2         3
     Eigenvalues --  1991.816513419.354254305.24994
           X            1.00000  -0.00209  -0.00230
           Y            0.00210   0.99999   0.00414
           Z            0.00229  -0.00415   0.99999
 This molecule is an asymmetric top.
 Rotational symmetry number  1.
 Warning -- assumption of classical behavior for rotation
           may cause significant error
 Rotational temperatures (Kelvin)      0.04348     0.02533     0.02012
 Rotational constants (GHZ):           0.90608     0.52780     0.41920
 Zero-point vibrational energy     960133.9 (Joules/Mol)
                                  229.47752 (Kcal/Mol)
 Warning -- explicit consideration of  27 degrees of freedom as
           vibrations may cause significant error
 Vibrational temperatures:     60.54    78.16   104.65   130.41   152.45
          (Kelvin)            163.24   221.47   265.13   312.13   314.67
                              326.48   341.98   350.34   373.58   384.77
                              392.72   411.49   478.89   507.73   542.75
                              607.17   622.25   653.58   677.09   690.35
                              773.56   804.20  1117.85  1150.53  1158.24
                             1170.10  1180.66  1275.10  1312.54  1342.53
                             1362.65  1369.73  1388.36  1468.74  1499.32
                             1518.69  1530.93  1572.38  1580.95  1596.48
                             1599.14  1665.24  1672.15  1680.06  1708.22
                             1765.48  1802.97  1806.96  1840.77  1858.93
                             1953.43  1969.87  1978.32  2002.93  2012.03
                             2017.86  2033.63  2048.06  2056.99  2057.60
                             2061.73  2100.62  2124.51  2133.99  2158.83
                             2160.47  2172.42  2176.14  2179.20  2181.62
                             2185.01  2186.79  2188.66  2191.52  2201.59
                             2207.31  2209.65  2211.40  2220.33  2232.93
                             4198.22  4235.83  4246.82  4281.36  4365.21
                             4365.47  4366.07  4379.34  4379.94  4386.20
                             4393.80  4414.43  4417.69  4421.54  4439.28
                             4450.13  4457.06  4457.82  4468.80  4469.30
                             4475.07  4488.54  4490.18  4490.92  4518.87
                             4544.34

 Zero-point correction=                           0.365696 (Hartree/Particle)
 Thermal correction to Energy=                    0.382792
 Thermal correction to Enthalpy=                  0.383736
 Thermal correction to Gibbs Free Energy=         0.322105
 Sum of electronic and zero-point Energies=           -543.947207
 Sum of electronic and thermal Energies=              -543.930111
 Sum of electronic and thermal Enthalpies=            -543.929167
 Sum of electronic and thermal Free Energies=         -543.990798

                     E (Thermal)             CV                S
                      KCal/Mol        Cal/Mol-Kelvin    Cal/Mol-Kelvin
 Total                  240.206             63.810            129.714
 Electronic               0.000              0.000              0.000
 Translational            0.889              2.981             41.571
 Rotational               0.889              2.981             31.750
 Vibrational            238.428             57.848             56.393
 Vibration     1          0.595              1.980              5.159
 Vibration     2          0.596              1.976              4.653
 Vibration     3          0.599              1.967              4.078
 Vibration     4          0.602              1.956              3.646
 Vibration     5          0.605              1.944              3.342
 Vibration     6          0.607              1.938              3.209
 Vibration     7          0.619              1.898              2.623
 Vibration     8          0.631              1.861              2.285
 Vibration     9          0.646              1.815              1.984
 Vibration    10          0.646              1.813              1.970
 Vibration    11          0.651              1.800              1.903
 Vibration    12          0.656              1.783              1.820
 Vibration    13          0.659              1.774              1.777
 Vibration    14          0.668              1.746              1.664
 Vibration    15          0.673              1.733              1.613
 Vibration    16          0.676              1.723              1.577
 Vibration    17          0.684              1.700              1.498
 Vibration    18          0.715              1.610              1.246
 Vibration    19          0.729              1.569              1.153
 Vibration    20          0.748              1.519              1.050
 Vibration    21          0.784              1.422              0.885
 Vibration    22          0.793              1.399              0.851
 Vibration    23          0.813              1.351              0.783
 Vibration    24          0.828              1.315              0.736
 Vibration    25          0.836              1.295              0.711
 Vibration    26          0.893              1.167              0.570
 Vibration    27          0.915              1.120              0.526

 Optimization completed.
    -- Stationary point found.
 Normal termination of Gaussian 16 at Mon Oct 25 03:59:05 2021.
