 Gaussian 16, Revision C.01,
 Gaussian 16:  ES64L-G16RevC.01  3-Jul-2019

 ----------------------------------------------------
 # opt freq b3lyp/6-31g(d) scrf=(smd,solvent=toluene)
 ----------------------------------------------------

 ----------------
 CH3CH2CCH2NCHCH3
 ----------------
 Symbolic Z-matrix:
 Charge =  0 Multiplicity = 1

 SCF Done:  E(RB3LYP) =  -541.874526216     A.U. after   12 cycles
 SCF Done:  E(RB3LYP) =  -541.883711889     A.U. after   12 cycles
 SCF Done:  E(RB3LYP) =  -541.887352777     A.U. after   11 cycles
 SCF Done:  E(RB3LYP) =  -541.889636556     A.U. after   11 cycles
 SCF Done:  E(RB3LYP) =  -541.890694303     A.U. after   11 cycles
 SCF Done:  E(RB3LYP) =  -541.892419719     A.U. after   13 cycles
 SCF Done:  E(RB3LYP) =  -541.894667618     A.U. after   11 cycles
 SCF Done:  E(RB3LYP) =  -541.896699031     A.U. after   12 cycles
 SCF Done:  E(RB3LYP) =  -541.897476215     A.U. after   11 cycles
 SCF Done:  E(RB3LYP) =  -541.898206992     A.U. after   11 cycles
 SCF Done:  E(RB3LYP) =  -541.898789495     A.U. after   11 cycles
 SCF Done:  E(RB3LYP) =  -541.899209720     A.U. after   11 cycles
 SCF Done:  E(RB3LYP) =  -541.899342821     A.U. after   10 cycles
 SCF Done:  E(RB3LYP) =  -541.899394786     A.U. after   10 cycles
 SCF Done:  E(RB3LYP) =  -541.899399116     A.U. after    9 cycles
 SCF Done:  E(RB3LYP) =  -541.899401194     A.U. after    9 cycles
 SCF Done:  E(RB3LYP) =  -541.899399862     A.U. after    7 cycles
 SCF Done:  E(RB3LYP) =  -541.899399876     A.U. after    6 cycles
 SCF Done:  E(RB3LYP) =  -541.899399888     A.U. after    6 cycles
 Optimization completed.
    -- Stationary point found.
 Normal termination of Gaussian 16 at Thu Sep 30 18:15:44 2021.

 --------------------------------------------------------------------
 #N Geom=AllCheck Guess=TCheck SCRF=Check GenChk RB3LYP/6-31G(d) Freq
 --------------------------------------------------------------------

 Structure from the checkpoint file:  "/home/rtong2/g16/093021/bCH3CH2CCH2NCHCH3.chk"
 ----------------
 CH3CH2CCH2NCHCH3
 ----------------
 Charge =  0 Multiplicity = 1

                         Standard orientation:
 ---------------------------------------------------------------------
 Center     Atomic      Atomic             Coordinates (Angstroms)
 Number     Number       Type             X           Y           Z
 ---------------------------------------------------------------------
      1          6           0       -0.347145    0.481778    2.458025
      2          1           0       -0.261393   -0.562136    2.771220
      3          1           0       -0.428441    1.100046    3.362290
      4          1           0       -1.277085    0.571235    1.892803
      5          6           0        0.871905    0.935926    1.644313
      6          1           0        0.801703    2.020530    1.473038
      7          1           0        1.763752    0.797978    2.273101
      8          6           0        1.170682    0.270547    0.268550
      9          6           0        2.658686    0.628329   -0.053320
     10          1           0        2.790223    1.702265    0.138282
     11          1           0        3.291213    0.113923    0.683515
     12          6           0        3.196322    0.323207   -1.458402
     13          1           0        4.257631    0.594404   -1.513529
     14          1           0        3.122173   -0.738667   -1.718604
     15          1           0        2.677897    0.894223   -2.236526
     16          6           0        0.298297    0.872697   -0.868822
     17          1           0        0.697448    1.873998   -1.115549
     18          1           0        0.427409    0.249189   -1.764506
     19          6           0        1.078278   -1.280147    0.319887
     20          1           0        1.579794   -1.695016   -0.571400
     21          1           0        1.654312   -1.612784    1.195674
     22          7           0       -0.264921   -1.820584    0.456646
     23          7           0       -1.131127    0.934483   -0.601969
     24          6           0       -1.711849    2.055350   -0.748356
     25          1           0       -1.153289    2.961081   -1.046145
     26          6           0       -0.685805   -2.608781   -0.445242
     27          1           0       -0.062605   -2.873785   -1.318678
     28          6           0       -2.049705   -3.227950   -0.397996
     29          1           0       -2.636125   -2.928008   -1.277072
     30          1           0       -1.980580   -4.324004   -0.421234
     31          1           0       -2.579859   -2.918241    0.506431
     32          6           0       -3.184123    2.232979   -0.529811
     33          1           0       -3.648093    1.285163   -0.243678
     34          1           0       -3.369933    2.977371    0.256346
     35          1           0       -3.667076    2.610347   -1.441466
 ---------------------------------------------------------------------

 SCF Done:  E(RB3LYP) =  -541.899399888     A.U. after    1 cycles

 The electronic state is 1-A.
 Alpha  occ. eigenvalues --  -14.31475 -14.31037 -10.21942 -10.21548 -10.19747
 Alpha  occ. eigenvalues --  -10.19514 -10.19053 -10.17588 -10.17564 -10.17245
 Alpha  occ. eigenvalues --  -10.16905 -10.16805 -10.15004  -0.91199  -0.90252
 Alpha  occ. eigenvalues --   -0.81079  -0.73913  -0.73674  -0.73146  -0.69087
 Alpha  occ. eigenvalues --   -0.65767  -0.63495  -0.58534  -0.55097  -0.54491
 Alpha  occ. eigenvalues --   -0.52469  -0.48032  -0.47586  -0.45265  -0.44720
 Alpha  occ. eigenvalues --   -0.42359  -0.41821  -0.41086  -0.40954  -0.40059
 Alpha  occ. eigenvalues --   -0.39543  -0.38391  -0.38060  -0.37521  -0.37406
 Alpha  occ. eigenvalues --   -0.36261  -0.34929  -0.33453  -0.32744  -0.32038
 Alpha  occ. eigenvalues --   -0.31263  -0.30187  -0.27136  -0.26677  -0.23861
 Alpha  occ. eigenvalues --   -0.23029
 Alpha virt. eigenvalues --    0.01150   0.01879   0.08937   0.11408   0.11693
 Alpha virt. eigenvalues --    0.12241   0.13068   0.13382   0.14810   0.15309
 Alpha virt. eigenvalues --    0.15616   0.16535   0.16831   0.17489   0.17633

 Mulliken charges:
               1
     1  C   -0.444405
     2  H    0.151770
     3  H    0.122010
     4  H    0.164522
     5  C   -0.270265
     6  H    0.124921
     7  H    0.127009
     8  C    0.110596
     9  C   -0.271606
    10  H    0.136259
    11  H    0.135370
    12  C   -0.468355
    13  H    0.147307
    14  H    0.151665
    15  H    0.151428
    16  C   -0.166613
    17  H    0.116504
    18  H    0.148552
    19  C   -0.167555
    20  H    0.119692
    21  H    0.143520
    22  N   -0.342737
    23  N   -0.348411
    24  C    0.095258
    25  H    0.114692
    26  C    0.098911
    27  H    0.109768
    28  C   -0.499809
    29  H    0.167861
    30  H    0.161598
    31  H    0.174192
    32  C   -0.502756
    33  H    0.176243
    34  H    0.167428
    35  H    0.165436
 Sum of Mulliken charges =   0.00000

 Dipole moment (field-independent basis, Debye):
    X=              0.4840    Y=              0.8056    Z=             -1.8288  Tot=              2.0561
 Quadrupole moment (field-independent basis, Debye-Ang):
   XX=            -78.5870   YY=            -75.1725   ZZ=            -83.9315
   XY=             -2.1238   XZ=              2.0192   YZ=              1.4929

  Exact polarizability:     171.125       0.809     156.544       0.310       7.140     134.836
 Approx polarizability:     188.586      -1.392     191.892       4.164      10.433     168.618

                      1                      2                      3
                      A                      A                      A
 Frequencies --     40.9977                57.4343                69.5320
 Red. masses --      2.9968                 2.9062                 2.6345
 Frc consts  --      0.0030                 0.0056                 0.0075
 IR Inten    --      1.3652                 0.3543                 4.5355

                      4                      5                      6
                      A                      A                      A
 Frequencies --     81.5849               109.6531               128.5239
 Red. masses --      2.2539                 1.9957                 1.5884
 Frc consts  --      0.0088                 0.0141                 0.0155
 IR Inten    --      3.1103                 0.9904                 2.1386

                      7                      8                      9
                      A                      A                      A
 Frequencies --    137.0963               151.3847               192.5937
 Red. masses --      1.5858                 1.5575                 2.1156
 Frc consts  --      0.0176                 0.0210                 0.0462
 IR Inten    --      2.2597                 0.4365                 0.0289

                     10                     11                     12
                      A                      A                      A
 Frequencies --    203.1583               207.5803               225.4577
 Red. masses --      1.6213                 1.6836                 1.9642
 Frc consts  --      0.0394                 0.0427                 0.0588
 IR Inten    --      1.8239                 0.8762                 1.1792

                     13                     14                     15
                      A                      A                      A
 Frequencies --    227.1061               270.2050               273.2040
 Red. masses --      1.3579                 3.1775                 2.8078
 Frc consts  --      0.0413                 0.1367                 0.1235
 IR Inten    --      0.8161                 1.6298                 2.0112

                     16                     17                     18
                      A                      A                      A
 Frequencies --    283.8292               312.6430               333.0740
 Red. masses --      2.2470                 2.0979                 2.2801
 Frc consts  --      0.1067                 0.1208                 0.1490
 IR Inten    --      0.4663                 3.7179                 6.9388

                     19                     20                     21
                      A                      A                      A
 Frequencies --    347.0009               389.9555               438.6723
 Red. masses --      2.6526                 2.6393                 2.5912
 Frc consts  --      0.1882                 0.2365                 0.2938
 IR Inten    --      4.0680                 0.8298                 1.9185

                     22                     23                     24
                      A                      A                      A
 Frequencies --    465.3720               492.5608               566.2264
 Red. masses --      2.9321                 2.5431                 2.6740
 Frc consts  --      0.3741                 0.3635                 0.5051
 IR Inten    --      8.9648                 5.9461                 0.7347

                     25                     26                     27
                      A                      A                      A
 Frequencies --    610.1110               745.6796               787.6421
 Red. masses --      2.9920                 2.7273                 1.1705
 Frc consts  --      0.6562                 0.8935                 0.4278
 IR Inten    --      5.3330                 6.3292                 1.0258

                     28                     29                     30
                      A                      A                      A
 Frequencies --    791.5876               875.4275               877.4901
 Red. masses --      1.2754                 1.3469                 1.3573
 Frc consts  --      0.4709                 0.6082                 0.6158
 IR Inten    --     21.2529                 4.5280                 4.2930

                     31                     32                     33
                      A                      A                      A
 Frequencies --    902.2735               920.1959               928.8356
 Red. masses --      2.1814                 1.6639                 1.8038
 Frc consts  --      1.0463                 0.8301                 0.9169
 IR Inten    --     24.4579                 1.9625                 1.7361

                     34                     35                     36
                      A                      A                      A
 Frequencies --    960.6170               976.7506              1008.8809
 Red. masses --      1.9934                 1.9593                 1.6435
 Frc consts  --      1.0838                 1.1013                 0.9856
 IR Inten    --      0.5112                 0.1403                 1.2844

                     37                     38                     39
                      A                      A                      A
 Frequencies --   1037.5842              1064.1141              1065.7459
 Red. masses --      1.9848                 1.4944                 3.5206
 Frc consts  --      1.2589                 0.9970                 2.3560
 IR Inten    --      5.2317                 8.4401                 9.1730

                     40                     41                     42
                      A                      A                      A
 Frequencies --   1079.7017              1099.3286              1106.6553
 Red. masses --      3.0044                 2.7420                 1.6325
 Frc consts  --      2.0636                 1.9524                 1.1780
 IR Inten    --      6.4533                 7.6366                 0.2242

                     43                     44                     45
                      A                      A                      A
 Frequencies --   1107.0389              1119.4173              1140.3850
 Red. masses --      1.6453                 1.6821                 2.5250
 Frc consts  --      1.1880                 1.2419                 1.9347
 IR Inten    --      0.6204                 0.5710                 2.0792

                     46                     47                     48
                      A                      A                      A
 Frequencies --   1163.2936              1172.0369              1213.2740
 Red. masses --      2.1851                 2.4246                 2.3335
 Frc consts  --      1.7422                 1.9623                 2.0238
 IR Inten    --      4.1981                17.1893                 0.9628

                     49                     50                     51
                      A                      A                      A
 Frequencies --   1228.8882              1291.2589              1318.7126
 Red. masses --      2.0727                 1.1591                 1.1285
 Frc consts  --      1.8442                 1.1387                 1.1563
 IR Inten    --      3.0342                 6.1480                 0.3885

                     52                     53                     54
                      A                      A                      A
 Frequencies --   1331.6968              1378.7603              1381.0502
 Red. masses --      1.2889                 1.1924                 1.3376
 Frc consts  --      1.3467                 1.3355                 1.5031
 IR Inten    --      3.7318                15.0531                 6.4708

                     55                     56                     57
                      A                      A                      A
 Frequencies --   1382.6229              1391.0082              1402.5279
 Red. masses --      1.2789                 1.3773                 1.2462
 Frc consts  --      1.4404                 1.5701                 1.4443
 IR Inten    --      1.5073                13.1703                 8.2502

                     58                     59                     60
                      A                      A                      A
 Frequencies --   1410.6885              1427.0360              1436.8903
 Red. masses --      1.2437                 1.3144                 1.3656
 Frc consts  --      1.4582                 1.5770                 1.6612
 IR Inten    --     10.7705                20.3949                 3.8339

                     61                     62                     63
                      A                      A                      A
 Frequencies --   1441.3175              1443.7498              1448.4493
 Red. masses --      1.3137                 1.2877                 1.2808
 Frc consts  --      1.6079                 1.5814                 1.5832
 IR Inten    --     18.9173                 1.0985                 1.9339

                     64                     65                     66
                      A                      A                      A
 Frequencies --   1497.8639              1498.4862              1500.9199
 Red. masses --      1.0548                 1.0548                 1.0459
 Frc consts  --      1.3944                 1.3955                 1.3882
 IR Inten    --     17.9003                16.7245                 5.3862

                     67                     68                     69
                      A                      A                      A
 Frequencies --   1501.2505              1502.1171              1505.9814
 Red. masses --      1.0457                 1.0708                 1.0915
 Frc consts  --      1.3886                 1.4235                 1.4586
 IR Inten    --     12.4309                 0.2868                19.3344

                     70                     71                     72
                      A                      A                      A
 Frequencies --   1512.6822              1516.2589              1521.8532
 Red. masses --      1.0710                 1.0806                 1.0561
 Frc consts  --      1.4439                 1.4638                 1.4411
 IR Inten    --      4.9881                15.3098                 1.0443

                     73                     74                     75
                      A                      A                      A
 Frequencies --   1529.8750              1532.3180              1534.1879
 Red. masses --      1.0477                 1.0564                 1.0597
 Frc consts  --      1.4447                 1.4614                 1.4695
 IR Inten    --      2.8995                 2.4486                 9.9064

                     76                     77                     78
                      A                      A                      A
 Frequencies --   1761.8491              1768.4983              2946.7659
 Red. masses --      7.6321                 7.7058                 1.0705
 Frc consts  --     13.9583                14.1996                 5.4769
 IR Inten    --    107.3783               111.8467                52.2643

                     79                     80                     81
                      A                      A                      A
 Frequencies --   2971.1388              2977.6055              2978.8072
 Red. masses --      1.0719                 1.0772                 1.0816
 Frc consts  --      5.5751                 5.6270                 5.6544
 IR Inten    --     13.8385               118.5082               130.6242

                     82                     83                     84
                      A                      A                      A
 Frequencies --   3010.9208              3027.4527              3038.4252
 Red. masses --      1.0601                 1.0627                 1.0940
 Frc consts  --      5.6625                 5.7386                 5.9504
 IR Inten    --     37.9670                43.1479                24.2766

                     85                     86                     87
                      A                      A                      A
 Frequencies --   3040.6023              3041.0651              3042.2874
 Red. masses --      1.0397                 1.0394                 1.0991
 Frc consts  --      5.6634                 5.6632                 5.9935
 IR Inten    --     24.4260                20.2811                59.0110

                     88                     89                     90
                      A                      A                      A
 Frequencies --   3045.8517              3047.3651              3052.5014
 Red. masses --      1.0845                 1.0497                 1.0426
 Frc consts  --      5.9279                 5.7436                 5.7239
 IR Inten    --     36.0946                66.6262                48.2385

                     91                     92                     93
                      A                      A                      A
 Frequencies --   3060.6618              3089.8577              3090.5106
 Red. masses --      1.1024                 1.0998                 1.1000
 Frc consts  --      6.0842                 6.1867                 6.1901
 IR Inten    --     54.5343                17.6140                21.8375

                     94                     95                     96
                      A                      A                      A
 Frequencies --   3108.9112              3121.2287              3125.3967
 Red. masses --      1.1007                 1.1024                 1.0886
 Frc consts  --      6.2679                 6.3278                 6.2653
 IR Inten    --     53.0549                54.9820                46.0727

                     97                     98                     99
                      A                      A                      A
 Frequencies --   3149.5304              3152.4493              3160.6615
 Red. masses --      1.1008                 1.1005                 1.1011
 Frc consts  --      6.4337                 6.4437                 6.4811
 IR Inten    --     16.6291                15.9791                27.7104

 - Thermochemistry -
 -------------------
 Temperature   298.150 Kelvin.  Pressure   1.00000 Atm.
 Atom     1 has atomic number  6 and mass  12.00000

 Molecular mass:   182.17830 amu.
 Principal axes and moments of inertia in atomic units:
                           1         2         3
     Eigenvalues --  2621.391972937.652844001.03203
           X            0.99960   0.02439  -0.01410
           Y           -0.02417   0.99959   0.01546
           Z            0.01447  -0.01511   0.99978
 This molecule is an asymmetric top.
 Rotational symmetry number  1.
 Warning -- assumption of classical behavior for rotation
           may cause significant error
 Rotational temperatures (Kelvin)      0.03304     0.02948     0.02165
 Rotational constants (GHZ):           0.68847     0.61435     0.45107
 Zero-point vibrational energy     834022.7 (Joules/Mol)
                                  199.33621 (Kcal/Mol)
 Warning -- explicit consideration of  25 degrees of freedom as
           vibrations may cause significant error
 Vibrational temperatures:     58.99    82.64   100.04   117.38   157.77
          (Kelvin)            184.92   197.25   217.81   277.10   292.30
                              298.66   324.38   326.76   388.76   393.08
                              408.37   449.82   479.22   499.26   561.06
                              631.15   669.57   708.69   814.67   877.81
                             1072.87  1133.24  1138.92  1259.54  1262.51
                             1298.17  1323.96  1336.39  1382.11  1405.33
                             1451.55  1492.85  1531.02  1533.37  1553.45
                             1581.69  1592.23  1592.78  1610.59  1640.76
                             1673.72  1686.30  1745.63  1768.10  1857.83
                             1897.33  1916.01  1983.73  1987.02  1989.29
                             2001.35  2017.92  2029.67  2053.19  2067.36
                             2073.73  2077.23  2084.00  2155.09  2155.99
                             2159.49  2159.96  2161.21  2166.77  2176.41
                             2181.56  2189.61  2201.15  2204.66  2207.35
                             2534.91  2544.47  4239.74  4274.81  4284.11
                             4285.84  4332.04  4355.83  4371.62  4374.75
                             4375.41  4377.17  4382.30  4384.48  4391.87
                             4403.61  4445.62  4446.56  4473.03  4490.75
                             4496.75  4531.47  4535.67  4547.49

 Zero-point correction=                           0.317662 (Hartree/Particle)
 Thermal correction to Energy=                    0.334187
 Thermal correction to Enthalpy=                  0.335131
 Thermal correction to Gibbs Free Energy=         0.274068
 Sum of electronic and zero-point Energies=           -541.581737
 Sum of electronic and thermal Energies=              -541.565213
 Sum of electronic and thermal Enthalpies=            -541.564268
 Sum of electronic and thermal Free Energies=         -541.625332

                     E (Thermal)             CV                S
                      KCal/Mol        Cal/Mol-Kelvin    Cal/Mol-Kelvin
 Total                  209.706             59.898            128.519
 Electronic               0.000              0.000              0.000
 Translational            0.889              2.981             41.506
 Rotational               0.889              2.981             31.800
 Vibrational            207.928             53.937             55.213
 Vibration     1          0.594              1.981              5.210
 Vibration     2          0.596              1.975              4.543
 Vibration     3          0.598              1.969              4.167
 Vibration     4          0.600              1.962              3.852
 Vibration     5          0.606              1.941              3.275
 Vibration     6          0.611              1.925              2.968
 Vibration     7          0.614              1.916              2.844
 Vibration     8          0.619              1.901              2.655
 Vibration     9          0.635              1.850              2.203
 Vibration    10          0.639              1.835              2.104
 Vibration    11          0.641              1.829              2.065
 Vibration    12          0.650              1.802              1.915
 Vibration    13          0.651              1.800              1.902
 Vibration    14          0.674              1.728              1.595
 Vibration    15          0.676              1.723              1.576
 Vibration    16          0.682              1.704              1.510
 Vibration    17          0.701              1.650              1.348
 Vibration    18          0.715              1.609              1.245
 Vibration    19          0.725              1.581              1.180
 Vibration    20          0.758              1.492              1.000
 Vibration    21          0.799              1.386              0.831
 Vibration    22          0.823              1.327              0.751
 Vibration    23          0.848              1.267              0.677
 Vibration    24          0.922              1.104              0.512
 Vibration    25          0.969              1.010              0.433

                           ! Non-Optimized Parameters !
 Normal termination of Gaussian 16 at Thu Sep 30 18:20:50 2021.
