 Gaussian 16, Revision C.01,
 Gaussian 16:  ES64L-G16RevC.01  3-Jul-2019

 ----------------------------------------------------
 # opt freq b3lyp/6-31g(d) scrf=(smd,solvent=toluene)
 ----------------------------------------------------

 -------------------
 CH3CH2CCH2NMeCH2CH3
 -------------------
 Symbolic Z-matrix:
 Charge =  0 Multiplicity = 1

 SCF Done:  E(RB3LYP) =  -622.630568453     A.U. after   11 cycles
 SCF Done:  E(RB3LYP) =  -622.740046644     A.U. after   10 cycles
 SCF Done:  E(RB3LYP) =  -622.798685911     A.U. after   11 cycles
 SCF Done:  E(RB3LYP) =  -622.859217954     A.U. after   10 cycles
 SCF Done:  E(RB3LYP) =  -622.885164914     A.U. after   10 cycles
 SCF Done:  E(RB3LYP) =  -622.898414910     A.U. after   10 cycles
 SCF Done:  E(RB3LYP) =  -622.908574357     A.U. after   10 cycles
 SCF Done:  E(RB3LYP) =  -622.918586720     A.U. after   10 cycles
 SCF Done:  E(RB3LYP) =  -622.925125885     A.U. after   11 cycles
 SCF Done:  E(RB3LYP) =  -622.927380309     A.U. after   10 cycles
 SCF Done:  E(RB3LYP) =  -622.931926990     A.U. after    7 cycles
 SCF Done:  E(RB3LYP) =  -622.931934422     A.U. after    7 cycles
 SCF Done:  E(RB3LYP) =  -622.931937775     A.U. after    7 cycles
 SCF Done:  E(RB3LYP) =  -622.931938984     A.U. after    7 cycles
 SCF Done:  E(RB3LYP) =  -622.931939890     A.U. after    7 cycles
 SCF Done:  E(RB3LYP) =  -622.931940355     A.U. after    6 cycles
 SCF Done:  E(RB3LYP) =  -622.931940578     A.U. after    6 cycles
 SCF Done:  E(RB3LYP) =  -622.931940833     A.U. after    6 cycles
 SCF Done:  E(RB3LYP) =  -622.931941029     A.U. after    6 cycles
 Optimization completed.
    -- Stationary point found.
 Normal termination of Gaussian 16 at Sun Oct 24 19:23:45 2021.

 --------------------------------------------------------------------
 #N Geom=AllCheck Guess=TCheck SCRF=Check GenChk RB3LYP/6-31G(d) Freq
 --------------------------------------------------------------------

 Structure from the checkpoint file:  "CH3CH2CCH2NMeCH2CH3.chk"
 -------------------
 CH3CH2CCH2NMeCH2CH3
 -------------------
 Charge =  0 Multiplicity = 1

                         Standard orientation:
 ---------------------------------------------------------------------
 Center     Atomic      Atomic             Coordinates (Angstroms)
 Number     Number       Type             X           Y           Z
 ---------------------------------------------------------------------
      1          6           0       -1.418813   -2.103889   -2.002981
      2          1           0       -0.562330   -2.128276   -2.685897
      3          1           0       -2.103455   -2.900016   -2.322358
      4          1           0       -1.921440   -1.143656   -2.139601
      5          6           0       -0.990738   -2.339286   -0.545456
      6          1           0       -1.879988   -2.543223    0.066859
      7          1           0       -0.404240   -3.269621   -0.520687
      8          6           0       -0.152381   -1.239920    0.182705
      9          6           0        0.467994   -1.962289    1.421658
     10          1           0       -0.313045   -2.610226    1.846316
     11          1           0        1.244054   -2.649502    1.056916
     12          6           0        1.037208   -1.114968    2.570950
     13          1           0        1.538949   -1.765701    3.298534
     14          1           0        1.757013   -0.370138    2.224443
     15          1           0        0.246919   -0.582757    3.111894
     16          6           0       -1.020301   -0.061971    0.713676
     17          1           0       -1.614405   -0.428208    1.568344
     18          1           0       -0.323908    0.678277    1.119979
     19          6           0        0.915043   -0.722358   -0.822875
     20          1           0        1.384505   -1.591705   -1.314938
     21          1           0        0.372208   -0.186409   -1.607390
     22          7           0       -1.899243    0.615555   -0.255467
     23          7           0        1.959170    0.176717   -0.290848
     24          6           0        3.215817   -0.531956   -0.059688
     25          1           0        3.699853   -0.855365   -1.003052
     26          1           0        3.924677    0.101191    0.483002
     27          1           0        3.044331   -1.422828    0.548159
     28          6           0        2.171011    1.356184   -1.141115
     29          1           0        2.659148    1.081789   -2.098829
     30          1           0        1.185626    1.757456   -1.398448
     31          6           0        2.978652    2.461402   -0.460215
     32          1           0        4.020211    2.173913   -0.281366
     33          1           0        2.993114    3.356709   -1.093247
     34          1           0        2.528483    2.727870    0.503183
     35          6           0       -1.775177    2.079032   -0.256704
     36          1           0       -2.327668    2.453686   -1.129167
     37          1           0       -0.720531    2.321705   -0.429627
     38          6           0       -2.256844    2.827337    0.998044
     39          1           0       -2.075874    3.903424    0.883964
     40          1           0       -3.330140    2.691331    1.172014
     41          1           0       -1.724239    2.495746    1.897259
     42          6           0       -3.289387    0.182231   -0.171816
     43          1           0       -3.882976    0.697749   -0.936412
     44          1           0       -3.367289   -0.891343   -0.363259
     45          1           0       -3.759563    0.374919    0.810539
 ---------------------------------------------------------------------

 SCF Done:  E(RB3LYP) =  -622.931941029     A.U. after    1 cycles

 The electronic state is 1-A.
 Alpha  occ. eigenvalues --  -14.31297 -14.31069 -10.19662 -10.19627 -10.18909
 Alpha  occ. eigenvalues --  -10.18902 -10.18766 -10.18740 -10.17998 -10.16847
 Alpha  occ. eigenvalues --  -10.16828 -10.16631 -10.16433 -10.15844 -10.15822
 Alpha  occ. eigenvalues --   -0.90659  -0.89942  -0.80258  -0.73758  -0.73542
 Alpha  occ. eigenvalues --   -0.73233  -0.70674  -0.68306  -0.65924  -0.63943
 Alpha  occ. eigenvalues --   -0.62680  -0.58360  -0.57068  -0.56553  -0.51364
 Alpha  occ. eigenvalues --   -0.47306  -0.47057  -0.46786  -0.45965  -0.44299
 Alpha  occ. eigenvalues --   -0.42883  -0.42016  -0.41668  -0.41081  -0.40534
 Alpha  occ. eigenvalues --   -0.39824  -0.38815  -0.38571  -0.37876  -0.37701
 Alpha  occ. eigenvalues --   -0.37191  -0.36590  -0.35395  -0.35069  -0.34960
 Alpha  occ. eigenvalues --   -0.34424  -0.33442  -0.33017  -0.32768  -0.32353
 Alpha  occ. eigenvalues --   -0.32271  -0.30664  -0.28995  -0.28912  -0.20220
 Alpha  occ. eigenvalues --   -0.19147
 Alpha virt. eigenvalues --    0.07712   0.09767   0.10481   0.11313   0.12187
 Alpha virt. eigenvalues --    0.12771   0.13256   0.13897   0.14254   0.14656
 Alpha virt. eigenvalues --    0.15548   0.16011   0.16070   0.16642   0.17089

 Mulliken charges:
               1
     1  C   -0.466240
     2  H    0.142800
     3  H    0.134233
     4  H    0.170305
     5  C   -0.282135
     6  H    0.130384
     7  H    0.128863
     8  C    0.142632
     9  C   -0.283506
    10  H    0.129184
    11  H    0.130268
    12  C   -0.466768
    13  H    0.134461
    14  H    0.169972
    15  H    0.142943
    16  C   -0.158935
    17  H    0.118140
    18  H    0.155220
    19  C   -0.156528
    20  H    0.118317
    21  H    0.152501
    22  N   -0.381926
    23  N   -0.390056
    24  C   -0.320926
    25  H    0.119656
    26  H    0.154856
    27  H    0.162139
    28  C   -0.119994
    29  H    0.108961
    30  H    0.154442
    31  C   -0.463787
    32  H    0.152019
    33  H    0.145573
    34  H    0.152827
    35  C   -0.147142
    36  H    0.136296
    37  H    0.153565
    38  C   -0.464885
    39  H    0.144090
    40  H    0.150200
    41  H    0.152356
    42  C   -0.316481
    43  H    0.146665
    44  H    0.159631
    45  H    0.125810
 Sum of Mulliken charges =  -0.00000

 Dipole moment (field-independent basis, Debye):
    X=             -0.0011    Y=              0.3418    Z=             -0.0624  Tot=              0.3474
 Quadrupole moment (field-independent basis, Debye-Ang):
   XX=            -95.8433   YY=            -97.6805   ZZ=           -101.5372
   XY=             -0.8922   XZ=             -1.2899   YZ=             -1.2568

  Exact polarizability:     186.326       0.951     181.663       1.643      -1.127     165.015
 Approx polarizability:     210.605      -0.062     209.229      -0.443      -2.577     201.864

                      1                      2                      3
                      A                      A                      A
 Frequencies --     43.6422                48.0366                57.8250
 Red. masses --      3.0386                 3.0446                 3.0440
 Frc consts  --      0.0034                 0.0041                 0.0060
 IR Inten    --      0.2217                 0.0739                 0.2145

                      4                      5                      6
                      A                      A                      A
 Frequencies --     90.4472                93.4591               108.3927
 Red. masses --      2.1988                 2.3185                 2.0177
 Frc consts  --      0.0106                 0.0119                 0.0140
 IR Inten    --      0.1855                 0.0782                 0.1502

                      7                      8                      9
                      A                      A                      A
 Frequencies --    147.1413               161.6889               167.5474
 Red. masses --      2.5188                 2.0936                 2.3837
 Frc consts  --      0.0321                 0.0322                 0.0394
 IR Inten    --      0.6812                 0.7082                 0.2971

                     10                     11                     12
                      A                      A                      A
 Frequencies --    172.2926               199.3401               207.5594
 Red. masses --      2.4308                 1.4237                 1.2893
 Frc consts  --      0.0425                 0.0333                 0.0327
 IR Inten    --      0.4879                 0.2415                 0.5558

                     13                     14                     15
                      A                      A                      A
 Frequencies --    218.6232               227.6461               235.2848
 Red. masses --      1.6833                 1.3505                 1.2596
 Frc consts  --      0.0474                 0.0412                 0.0411
 IR Inten    --      0.4660                 0.3437                 0.8517

                     16                     17                     18
                      A                      A                      A
 Frequencies --    238.4032               256.6545               267.4418
 Red. masses --      1.2758                 1.3883                 2.3044
 Frc consts  --      0.0427                 0.0539                 0.0971
 IR Inten    --      0.6144                 0.5844                 0.5490

                     19                     20                     21
                      A                      A                      A
 Frequencies --    274.8346               286.5012               312.3504
 Red. masses --      1.8000                 1.7413                 1.7427
 Frc consts  --      0.0801                 0.0842                 0.1002
 IR Inten    --      2.3328                 0.4846                 0.5838

                     22                     23                     24
                      A                      A                      A
 Frequencies --    364.6705               376.9689               410.8955
 Red. masses --      2.5377                 2.5376                 3.0208
 Frc consts  --      0.1988                 0.2125                 0.3005
 IR Inten    --      1.1454                 1.0226                 0.6752

                     25                     26                     27
                      A                      A                      A
 Frequencies --    420.8370               433.6149               450.3180
 Red. masses --      2.2862                 2.0302                 1.7293
 Frc consts  --      0.2386                 0.2249                 0.2066
 IR Inten    --      0.3714                11.2141                 0.5905

                     28                     29                     30
                      A                      A                      A
 Frequencies --    462.0181               487.8645               538.4441
 Red. masses --      2.3349                 2.5601                 2.6136
 Frc consts  --      0.2937                 0.3590                 0.4464
 IR Inten    --      0.1624                 5.7516                 6.6555

                     31                     32                     33
                      A                      A                      A
 Frequencies --    568.6100               748.3741               770.9595
 Red. masses --      2.6852                 2.5611                 1.5742
 Frc consts  --      0.5115                 0.8451                 0.5513
 IR Inten    --      0.7594                 1.1705                30.4194

                     34                     35                     36
                      A                      A                      A
 Frequencies --    796.9536               799.2130               816.9871
 Red. masses --      1.2409                 1.2217                 1.2066
 Frc consts  --      0.4644                 0.4598                 0.4745
 IR Inten    --      2.7731                 8.5872                 5.4671

                     37                     38                     39
                      A                      A                      A
 Frequencies --    822.9896               832.0929               857.7917
 Red. masses --      2.4920                 2.2950                 1.9623
 Frc consts  --      0.9944                 0.9362                 0.8507
 IR Inten    --      5.1392                 5.8727                 0.4488

                     40                     41                     42
                      A                      A                      A
 Frequencies --    902.5130               941.0155               969.7867
 Red. masses --      2.0057                 2.4955                 2.7338
 Frc consts  --      0.9625                 1.3020                 1.5148
 IR Inten    --      0.1092                 9.3969                19.1318

                     43                     44                     45
                      A                      A                      A
 Frequencies --    979.2838              1001.9395              1025.2992
 Red. masses --      1.7181                 2.2896                 1.8411
 Frc consts  --      0.9708                 1.3543                 1.1404
 IR Inten    --     25.1266                10.1219                19.5975

                     46                     47                     48
                      A                      A                      A
 Frequencies --   1054.3304              1061.0538              1067.5058
 Red. masses --      2.1786                 2.0362                 1.5948
 Frc consts  --      1.4269                 1.3506                 1.0708
 IR Inten    --     36.0504                72.3618                12.5790

                     49                     50                     51
                      A                      A                      A
 Frequencies --   1083.0516              1085.2141              1088.3856
 Red. masses --      2.3504                 2.3889                 2.1801
 Frc consts  --      1.6244                 1.6576                 1.5216
 IR Inten    --      0.6939                45.0483                 3.0820

                     52                     53                     54
                      A                      A                      A
 Frequencies --   1108.5220              1110.8036              1124.7186
 Red. masses --      1.6429                 1.5962                 2.2676
 Frc consts  --      1.1894                 1.1604                 1.6901
 IR Inten    --     20.1254                16.4467                 6.1722

                     55                     56                     57
                      A                      A                      A
 Frequencies --   1134.3957              1164.6608              1171.5846
 Red. masses --      1.4998                 1.3673                 1.6148
 Frc consts  --      1.1371                 1.0927                 1.3059
 IR Inten    --      3.3882                 8.8427                11.5455

                     58                     59                     60
                      A                      A                      A
 Frequencies --   1179.2714              1203.1841              1242.6468
 Red. masses --      2.0188                 2.3169                 2.2953
 Frc consts  --      1.6541                 1.9762                 2.0882
 IR Inten    --      6.4720                 2.6925                11.7179

                     61                     62                     63
                      A                      A                      A
 Frequencies --   1248.3952              1262.8124              1271.1227
 Red. masses --      2.6191                 1.8864                 2.1353
 Frc consts  --      2.4050                 1.7724                 2.0328
 IR Inten    --      3.1938                26.4152                24.0606

                     64                     65                     66
                      A                      A                      A
 Frequencies --   1318.4147              1339.0105              1352.8229
 Red. masses --      1.1431                 1.2161                 1.3234
 Frc consts  --      1.1707                 1.2847                 1.4270
 IR Inten    --      0.1281                 5.1413                 8.6142

                     67                     68                     69
                      A                      A                      A
 Frequencies --   1370.2937              1376.1542              1386.3390
 Red. masses --      1.3232                 1.2976                 1.3132
 Frc consts  --      1.4639                 1.4478                 1.4870
 IR Inten    --      4.2431                11.2287                 5.1715

                     70                     71                     72
                      A                      A                      A
 Frequencies --   1387.9682              1396.3910              1402.6778
 Red. masses --      1.3134                 1.2965                 1.2937
 Frc consts  --      1.4908                 1.4895                 1.4996
 IR Inten    --     33.9341                18.8881                31.6929

                     73                     74                     75
                      A                      A                      A
 Frequencies --   1411.4609              1428.6246              1429.2805
 Red. masses --      1.2873                 1.2688                 1.2767
 Frc consts  --      1.5110                 1.5257                 1.5366
 IR Inten    --      6.4337                 8.9302                 4.5934

                     76                     77                     78
                      A                      A                      A
 Frequencies --   1432.3714              1433.0917              1437.1852
 Red. masses --      1.2723                 1.2493                 1.2468
 Frc consts  --      1.5379                 1.5117                 1.5174
 IR Inten    --     14.2962                 8.2985                 2.0579

                     79                     80                     81
                      A                      A                      A
 Frequencies --   1444.9206              1480.9686              1484.1126
 Red. masses --      1.3057                 1.1546                 1.1664
 Frc consts  --      1.6061                 1.4920                 1.5137
 IR Inten    --     12.5378                 1.1858                 0.6770

                     82                     83                     84
                      A                      A                      A
 Frequencies --   1498.8198              1507.5940              1509.6260
 Red. masses --      1.0691                 1.0752                 1.0705
 Frc consts  --      1.4151                 1.4398                 1.4374
 IR Inten    --      3.2733                 2.4731                 3.5758

                     85                     86                     87
                      A                      A                      A
 Frequencies --   1513.5176              1514.8482              1516.3104
 Red. masses --      1.0545                 1.0503                 1.0603
 Frc consts  --      1.4233                 1.4201                 1.4363
 IR Inten    --      0.7607                 6.4728                 7.4542

                     88                     89                     90
                      A                      A                      A
 Frequencies --   1519.3959              1519.6107              1523.6454
 Red. masses --      1.0523                 1.0588                 1.0593
 Frc consts  --      1.4313                 1.4406                 1.4489
 IR Inten    --      2.3318                 6.6942                 2.1807

                     91                     92                     93
                      A                      A                      A
 Frequencies --   1526.2411              1527.8052              1529.5501
 Red. masses --      1.0546                 1.0534                 1.0596
 Frc consts  --      1.4475                 1.4487                 1.4605
 IR Inten    --      2.2305                 3.2448                 4.2334

                     94                     95                     96
                      A                      A                      A
 Frequencies --   1533.9627              1535.7258              1538.4930
 Red. masses --      1.0564                 1.0756                 1.0603
 Frc consts  --      1.4645                 1.4946                 1.4787
 IR Inten    --      8.7420                 4.2461                 6.1079

                     97                     98                     99
                      A                      A                      A
 Frequencies --   1543.0945              1549.0627              1550.7976
 Red. masses --      1.0853                 1.0544                 1.0536
 Frc consts  --      1.5226                 1.4908                 1.4930
 IR Inten    --      5.9278                 6.8134                 2.8947

                    100                    101                    102
                      A                      A                      A
 Frequencies --   2913.7318              2933.9371              2956.7523
 Red. masses --      1.0737                 1.0638                 1.0615
 Frc consts  --      5.3708                 5.3953                 5.4674
 IR Inten    --     98.6688               134.3259                89.7172

                    103                    104                    105
                      A                      A                      A
 Frequencies --   2972.1998              2975.3065              3012.6218
 Red. masses --      1.0717                 1.0719                 1.0626
 Frc consts  --      5.5779                 5.5905                 5.6822
 IR Inten    --    134.8160                37.2586                 5.4045

                    106                    107                    108
                      A                      A                      A
 Frequencies --   3021.3799              3037.8340              3046.8576
 Red. masses --      1.0630                 1.0644                 1.1004
 Frc consts  --      5.7173                 5.7872                 6.0187
 IR Inten    --     98.8417                41.1355                 3.6467

                    109                    110                    111
                      A                      A                      A
 Frequencies --   3048.0618              3051.1924              3051.6798
 Red. masses --      1.0363                 1.0690                 1.0367
 Frc consts  --      5.6727                 5.8638                 5.6882
 IR Inten    --     26.7448                62.2728                16.6374

                    112                    113                    114
                      A                      A                      A
 Frequencies --   3052.2233              3052.7433              3077.6589
 Red. masses --      1.0615                 1.0511                 1.0765
 Frc consts  --      5.8265                 5.7712                 6.0077
 IR Inten    --     74.5961                58.0293                43.5254

                    115                    116                    117
                      A                      A                      A
 Frequencies --   3082.0119              3084.3430              3095.7742
 Red. masses --      1.0974                 1.0892                 1.0905
 Frc consts  --      6.1418                 6.1051                 6.1575
 IR Inten    --     33.0673                 1.0698                50.8006

                    118                    119                    120
                      A                      A                      A
 Frequencies --   3097.3791              3100.5591              3106.4392
 Red. masses --      1.0866                 1.0775                 1.0973
 Frc consts  --      6.1419                 6.1029                 6.2386
 IR Inten    --     29.9106                14.5381                51.5139

                    121                    122                    123
                      A                      A                      A
 Frequencies --   3106.8419              3109.9787              3117.0099
 Red. masses --      1.0978                 1.1012                 1.1014
 Frc consts  --      6.2431                 6.2750                 6.3047
 IR Inten    --     64.2307                43.0345                52.9350

                    124                    125                    126
                      A                      A                      A
 Frequencies --   3121.7489              3125.9886              3133.7462
 Red. masses --      1.1029                 1.1007                 1.0985
 Frc consts  --      6.3325                 6.3371                 6.3557
 IR Inten    --     78.2618                54.6073                42.0139

                    127                    128                    129
                      A                      A                      A
 Frequencies --   3151.2692              3153.5310              3156.5824
 Red. masses --      1.0995                 1.0982                 1.0978
 Frc consts  --      6.4329                 6.4344                 6.4447
 IR Inten    --     44.7428                23.0216                11.1075

 - Thermochemistry -
 -------------------
 Temperature   298.150 Kelvin.  Pressure   1.00000 Atm.
 Atom     1 has atomic number  6 and mass  12.00000

 Molecular mass:   214.24090 amu.
 Principal axes and moments of inertia in atomic units:
                           1         2         3
     Eigenvalues --  3069.332874073.673815159.60218
           X            0.99999   0.00520   0.00171
           Y           -0.00522   0.99994   0.00939
           Z           -0.00166  -0.00940   0.99995
 This molecule is an asymmetric top.
 Rotational symmetry number  1.
 Warning -- assumption of classical behavior for rotation
           may cause significant error
 Rotational temperatures (Kelvin)      0.02822     0.02126     0.01679
 Rotational constants (GHZ):           0.58799     0.44303     0.34978
 Zero-point vibrational energy    1112370.3 (Joules/Mol)
                                  265.86287 (Kcal/Mol)
 Warning -- explicit consideration of  31 degrees of freedom as
           vibrations may cause significant error
 Vibrational temperatures:     62.79    69.11    83.20   130.13   134.47
          (Kelvin)            155.95   211.70   232.63   241.06   247.89
                              286.81   298.63   314.55   327.53   338.52
                              343.01   369.27   384.79   395.43   412.21
                              449.40   524.68   542.37   591.19   605.49
                              623.88   647.91   664.74   701.93   774.70
                              818.10  1076.74  1109.24  1146.64  1149.89
                             1175.46  1184.10  1197.20  1234.17  1298.51
                             1353.91  1395.31  1408.97  1441.57  1475.18
                             1516.95  1526.62  1535.90  1558.27  1561.38
                             1565.94  1594.92  1598.20  1618.22  1632.14
                             1675.69  1685.65  1696.71  1731.11  1787.89
                             1796.16  1816.91  1828.86  1896.90  1926.54
                             1946.41  1971.55  1979.98  1994.63  1996.98
                             2009.10  2018.14  2030.78  2055.47  2056.42
                             2060.86  2061.90  2067.79  2078.92  2130.78
                             2135.31  2156.47  2169.09  2172.02  2177.61
                             2179.53  2181.63  2186.07  2186.38  2192.19
                             2195.92  2198.17  2200.68  2207.03  2209.57
                             2213.55  2220.17  2228.76  2231.25  4192.21
                             4221.28  4254.11  4276.33  4280.80  4334.49
                             4347.09  4370.77  4383.75  4385.48  4389.99
                             4390.69  4391.47  4392.22  4428.06  4434.33
                             4437.68  4454.13  4456.44  4461.01  4469.47
                             4470.05  4474.57  4484.68  4491.50  4497.60
                             4508.76  4533.97  4537.23  4541.62

 Zero-point correction=                           0.423679 (Hartree/Particle)
 Thermal correction to Energy=                    0.443271
 Thermal correction to Enthalpy=                  0.444215
 Thermal correction to Gibbs Free Energy=         0.377224
 Sum of electronic and zero-point Energies=           -622.508262
 Sum of electronic and thermal Energies=              -622.488670
 Sum of electronic and thermal Enthalpies=            -622.487726
 Sum of electronic and thermal Free Energies=         -622.554717

                     E (Thermal)             CV                S
                      KCal/Mol        Cal/Mol-Kelvin    Cal/Mol-Kelvin
 Total                  278.157             73.457            140.994
 Electronic               0.000              0.000              0.000
 Translational            0.889              2.981             41.989
 Rotational               0.889              2.981             32.534
 Vibrational            276.379             67.495             66.471
 Vibration     1          0.595              1.980              5.086
 Vibration     2          0.595              1.978              4.897
 Vibration     3          0.596              1.974              4.530
 Vibration     4          0.602              1.956              3.650
 Vibration     5          0.602              1.954              3.586
 Vibration     6          0.606              1.943              3.297
 Vibration     7          0.617              1.906              2.709
 Vibration     8          0.622              1.889              2.530
 Vibration     9          0.624              1.882              2.463
 Vibration    10          0.626              1.877              2.410
 Vibration    11          0.637              1.841              2.139
 Vibration    12          0.641              1.829              2.065
 Vibration    13          0.646              1.813              1.970
 Vibration    14          0.651              1.799              1.897
 Vibration    15          0.655              1.787              1.838
 Vibration    16          0.656              1.782              1.815
 Vibration    17          0.666              1.752              1.684
 Vibration    18          0.673              1.733              1.613
 Vibration    19          0.677              1.720              1.566
 Vibration    20          0.684              1.699              1.495
 Vibration    21          0.701              1.650              1.350
 Vibration    22          0.738              1.545              1.102
 Vibration    23          0.748              1.519              1.051
 Vibration    24          0.775              1.447              0.923
 Vibration    25          0.783              1.425              0.889
 Vibration    26          0.794              1.397              0.847
 Vibration    27          0.809              1.360              0.795
 Vibration    28          0.820              1.334              0.760
 Vibration    29          0.844              1.277              0.689
 Vibration    30          0.893              1.165              0.569
 Vibration    31          0.925              1.099              0.507

                           ! Non-Optimized Parameters !
 Normal termination of Gaussian 16 at Sun Oct 24 19:42:28 2021.
