 Gaussian 16, Revision C.01,
 Gaussian 16:  ES64L-G16RevC.01  3-Jul-2019

 ----------------------------------------------------
 # opt freq b3lyp/6-31g(d) scrf=(smd,solvent=toluene)
 ----------------------------------------------------

 --------------------
 cyclohexaneNMeCH2CH3
 --------------------
 Symbolic Z-matrix:
 Charge =  0 Multiplicity = 1

 SCF Done:  E(RB3LYP) =  -582.303852480     A.U. after   11 cycles
 SCF Done:  E(RB3LYP) =  -582.382372367     A.U. after   11 cycles
 SCF Done:  E(RB3LYP) =  -582.394954310     A.U. after   11 cycles
 SCF Done:  E(RB3LYP) =  -582.409419247     A.U. after   10 cycles
 SCF Done:  E(RB3LYP) =  -582.413259219     A.U. after   10 cycles
 SCF Done:  E(RB3LYP) =  -582.415181838     A.U. after   10 cycles
 SCF Done:  E(RB3LYP) =  -582.415543988     A.U. after    9 cycles
 SCF Done:  E(RB3LYP) =  -582.415772722     A.U. after    9 cycles
 SCF Done:  E(RB3LYP) =  -582.415910142     A.U. after    9 cycles
 SCF Done:  E(RB3LYP) =  -582.416484122     A.U. after   10 cycles
 SCF Done:  E(RB3LYP) =  -582.422594043     A.U. after   10 cycles
 SCF Done:  E(RB3LYP) =  -582.422917479     A.U. after    9 cycles
 SCF Done:  E(RB3LYP) =  -582.423034308     A.U. after    9 cycles
 SCF Done:  E(RB3LYP) =  -582.423047592     A.U. after    8 cycles
 SCF Done:  E(RB3LYP) =  -582.423055336     A.U. after    8 cycles
 SCF Done:  E(RB3LYP) =  -582.423048530     A.U. after    8 cycles
 SCF Done:  E(RB3LYP) =  -582.423060182     A.U. after    8 cycles
 SCF Done:  E(RB3LYP) =  -582.423060943     A.U. after    7 cycles
 SCF Done:  E(RB3LYP) =  -582.423061093     A.U. after    6 cycles
 Optimization completed.
    -- Stationary point found.
 Normal termination of Gaussian 16 at Sun Oct 24 19:36:23 2021.

 --------------------------------------------------------------------
 #N Geom=AllCheck Guess=TCheck SCRF=Check GenChk RB3LYP/6-31G(d) Freq
 --------------------------------------------------------------------

 Structure from the checkpoint file:  "/home/rong/g16/learning/cyclohexaneNMeCH2CH3.chk"
 --------------------
 cyclohexaneNMeCH2CH3
 --------------------
 Charge =  0 Multiplicity = 1

                         Standard orientation:
 ---------------------------------------------------------------------
 Center     Atomic      Atomic             Coordinates (Angstroms)
 Number     Number       Type             X           Y           Z
 ---------------------------------------------------------------------
      1          6           0       -0.636713    0.586400   -0.232870
      2          6           0        0.816212    0.161991    0.175454
      3          6           0        1.787295    1.255274   -0.332162
      4          6           0        1.447937    2.664776    0.168062
      5          6           0        0.033277    3.067984   -0.246959
      6          6           0       -0.967078    2.021976    0.249397
      7          1           0        2.811329    1.014195   -0.033576
      8          1           0        0.884180    0.157716    1.281377
      9          1           0       -0.622923    0.591842   -1.330304
     10          1           0        1.531545    2.698073    1.264388
     11          1           0        2.187378    3.375702   -0.222967
     12          1           0       -0.222758    4.059461    0.149225
     13          1           0       -0.018945    3.143659   -1.343112
     14          1           0       -0.978126    2.044236    1.347796
     15          1           0       -1.982347    2.281609   -0.076104
     16          1           0        1.770626    1.259715   -1.431420
     17          7           0       -1.687510   -0.388133    0.136270
     18          7           0        1.160222   -1.179638   -0.358127
     19          6           0       -2.057724   -0.380705    1.547783
     20          1           0       -2.710765    0.464153    1.835394
     21          1           0       -2.585277   -1.305670    1.803821
     22          1           0       -1.160561   -0.340110    2.172524
     23          6           0       -2.854477   -0.344925   -0.747984
     24          1           0       -2.482964   -0.256032   -1.775213
     25          1           0       -3.487528    0.546197   -0.561609
     26          6           0       -3.732555   -1.595089   -0.659329
     27          1           0       -4.225143   -1.694255    0.314007
     28          1           0       -4.522069   -1.547696   -1.418990
     29          1           0       -3.139282   -2.499237   -0.837341
     30          6           0        0.667244   -2.277571    0.469593
     31          1           0       -0.418231   -2.226742    0.533924
     32          1           0        0.939370   -3.231491    0.001092
     33          1           0        1.081133   -2.281033    1.496818
     34          6           0        2.543206   -1.435809   -0.784679
     35          1           0        2.513108   -2.361359   -1.376125
     36          1           0        2.854915   -0.653136   -1.480398
     37          6           0        3.615404   -1.607164    0.308565
     38          1           0        3.409370   -2.471961    0.948865
     39          1           0        4.596844   -1.769322   -0.155244
     40          1           0        3.695978   -0.726944    0.956955
 ---------------------------------------------------------------------

 SCF Done:  E(RB3LYP) =  -582.423061093     A.U. after    1 cycles

 The electronic state is 1-A.
 Alpha  occ. eigenvalues --  -14.30952 -14.30488 -10.20154 -10.19768 -10.19598
 Alpha  occ. eigenvalues --  -10.19220 -10.18920 -10.17538 -10.17197 -10.17124
 Alpha  occ. eigenvalues --  -10.17065 -10.16666 -10.16499 -10.16235  -0.91075
 Alpha  occ. eigenvalues --   -0.88925  -0.80811  -0.74335  -0.73313  -0.72281
 Alpha  occ. eigenvalues --   -0.71135  -0.66461  -0.64657  -0.61172  -0.60066
 Alpha  occ. eigenvalues --   -0.56317  -0.55581  -0.53376  -0.48341  -0.46960
 Alpha  occ. eigenvalues --   -0.45498  -0.45292  -0.43984  -0.43242  -0.42121
 Alpha  occ. eigenvalues --   -0.41600  -0.40591  -0.40507  -0.38896  -0.37670
 Alpha  occ. eigenvalues --   -0.37286  -0.36851  -0.36262  -0.35836  -0.35168
 Alpha  occ. eigenvalues --   -0.34756  -0.33958  -0.33120  -0.32994  -0.32711
 Alpha  occ. eigenvalues --   -0.31980  -0.31057  -0.30394  -0.28944  -0.19828
 Alpha  occ. eigenvalues --   -0.18239
 Alpha virt. eigenvalues --    0.08607   0.09902   0.10031   0.11051   0.12651
 Alpha virt. eigenvalues --    0.13596   0.13986   0.14343   0.15191   0.15851
 Alpha virt. eigenvalues --    0.15960   0.16037   0.17008   0.17357   0.17753

 Mulliken charges:
               1
     1  C    0.056662
     2  C    0.056914
     3  C   -0.303329
     4  C   -0.264508
     5  C   -0.261039
     6  C   -0.282895
     7  H    0.147414
     8  H    0.100548
     9  H    0.124448
    10  H    0.131025
    11  H    0.133298
    12  H    0.130751
    13  H    0.130709
    14  H    0.133648
    15  H    0.137620
    16  H    0.141308
    17  N   -0.393442
    18  N   -0.404213
    19  C   -0.322563
    20  H    0.125939
    21  H    0.154684
    22  H    0.156323
    23  C   -0.106006
    24  H    0.144542
    25  H    0.108976
    26  C   -0.463281
    27  H    0.150050
    28  H    0.144718
    29  H    0.155815
    30  C   -0.320660
    31  H    0.184436
    32  H    0.136485
    33  H    0.109571
    34  C   -0.129112
    35  H    0.135998
    36  H    0.144089
    37  C   -0.466061
    38  H    0.150194
    39  H    0.141511
    40  H    0.149433
 Sum of Mulliken charges =  -0.00000

 Dipole moment (field-independent basis, Debye):
    X=             -0.0300    Y=              0.9272    Z=              0.4139  Tot=              1.0158
 Quadrupole moment (field-independent basis, Debye-Ang):
   XX=            -88.2576   YY=            -91.2722   ZZ=            -90.3699
   XY=              0.1169   XZ=             -0.5195   YZ=             -0.8460

  Exact polarizability:     176.619      -0.267     169.171      -2.544      -0.920     142.223
 Approx polarizability:     192.237      -1.383     190.370      -2.690      -0.218     188.726

                      1                      2                      3
                      A                      A                      A
 Frequencies --     35.4975                58.0516                74.2313
 Red. masses --      3.1034                 2.0233                 2.7494
 Frc consts  --      0.0023                 0.0040                 0.0089
 IR Inten    --      0.3625                 0.1207                 0.1053

                      4                      5                      6
                      A                      A                      A
 Frequencies --     88.1252               133.8485               138.5081
 Red. masses --      2.4294                 2.6384                 2.8569
 Frc consts  --      0.0111                 0.0278                 0.0323
 IR Inten    --      0.2222                 0.2858                 0.3937

                      7                      8                      9
                      A                      A                      A
 Frequencies --    187.1051               189.8228               230.4614
 Red. masses --      2.1503                 1.2752                 1.1282
 Frc consts  --      0.0444                 0.0271                 0.0353
 IR Inten    --      1.0222                 0.6130                 0.2038

                     10                     11                     12
                      A                      A                      A
 Frequencies --    236.5477               248.2510               261.7897
 Red. masses --      2.8430                 1.4509                 1.5440
 Frc consts  --      0.0937                 0.0527                 0.0623
 IR Inten    --      0.5564                 1.3708                 0.9386

                     13                     14                     15
                      A                      A                      A
 Frequencies --    277.3614               286.5749               307.8189
 Red. masses --      1.4202                 1.9466                 2.2641
 Frc consts  --      0.0644                 0.0942                 0.1264
 IR Inten    --      1.2751                 1.9500                 0.9660

                     16                     17                     18
                      A                      A                      A
 Frequencies --    337.4203               349.8124               367.1441
 Red. masses --      1.9747                 2.1419                 2.8254
 Frc consts  --      0.1325                 0.1544                 0.2244
 IR Inten    --      1.7450                 0.3650                 2.3544

                     19                     20                     21
                      A                      A                      A
 Frequencies --    392.6784               437.8435               451.5613
 Red. masses --      2.6378                 2.7476                 2.8278
 Frc consts  --      0.2396                 0.3103                 0.3397
 IR Inten    --      1.0077                 5.1983                 3.9868

                     22                     23                     24
                      A                      A                      A
 Frequencies --    473.9006               496.7386               524.5255
 Red. masses --      2.8233                 2.2861                 2.4974
 Frc consts  --      0.3736                 0.3323                 0.4048
 IR Inten    --      0.9977                 0.5602                 4.7544

                     25                     26                     27
                      A                      A                      A
 Frequencies --    557.0929               602.5643               778.9550
 Red. masses --      2.3331                 2.5748                 2.0166
 Frc consts  --      0.4266                 0.5508                 0.7209
 IR Inten    --     10.8319                 8.2634                 6.1010

                     28                     29                     30
                      A                      A                      A
 Frequencies --    795.9723               800.7945               817.2415
 Red. masses --      2.0226                 1.2635                 1.2391
 Frc consts  --      0.7550                 0.4774                 0.4876
 IR Inten    --      7.4807                 3.7629                 6.3122

                     31                     32                     33
                      A                      A                      A
 Frequencies --    830.5935               874.6726               887.8408
 Red. masses --      2.3996                 1.9581                 1.5534
 Frc consts  --      0.9754                 0.8826                 0.7214
 IR Inten    --      4.3302                 5.4246                23.4405

                     34                     35                     36
                      A                      A                      A
 Frequencies --    913.7216               931.7218               968.3621
 Red. masses --      2.2171                 2.0353                 2.3095
 Frc consts  --      1.0906                 1.0410                 1.2760
 IR Inten    --      3.9603                 2.0814                14.7972

                     37                     38                     39
                      A                      A                      A
 Frequencies --    976.5053              1009.0807              1046.4096
 Red. masses --      2.3243                 2.2172                 2.1041
 Frc consts  --      1.3058                 1.3302                 1.3574
 IR Inten    --      5.9328                25.0611                 6.0196

                     40                     41                     42
                      A                      A                      A
 Frequencies --   1054.4716              1063.1242              1067.2175
 Red. masses --      1.9636                 1.9260                 2.2447
 Frc consts  --      1.2864                 1.2826                 1.5063
 IR Inten    --     35.7854                 5.9154                90.7027

                     43                     44                     45
                      A                      A                      A
 Frequencies --   1078.8886              1094.2195              1101.1205
 Red. masses --      2.1347                 2.2112                 2.0791
 Frc consts  --      1.4640                 1.5598                 1.4852
 IR Inten    --     25.1024                18.4864                 1.8111

                     46                     47                     48
                      A                      A                      A
 Frequencies --   1112.1964              1127.3052              1136.4580
 Red. masses --      1.6611                 1.5910                 1.7538
 Frc consts  --      1.2106                 1.1912                 1.3346
 IR Inten    --     31.1126                 2.9004                13.9865

                     49                     50                     51
                      A                      A                      A
 Frequencies --   1143.8031              1163.0273              1175.9517
 Red. masses --      1.4788                 1.3927                 1.6400
 Frc consts  --      1.1399                 1.1099                 1.3362
 IR Inten    --      8.3707                13.8466                17.8368

                     52                     53                     54
                      A                      A                      A
 Frequencies --   1215.1303              1233.7895              1242.6603
 Red. masses --      2.0018                 2.3947                 1.6442
 Frc consts  --      1.7415                 2.1478                 1.4959
 IR Inten    --     28.2399                 8.2616                 3.7664

                     55                     56                     57
                      A                      A                      A
 Frequencies --   1265.5371              1267.8850              1295.5243
 Red. masses --      1.8998                 1.7715                 1.4695
 Frc consts  --      1.7927                 1.6778                 1.4531
 IR Inten    --     17.7730                17.5015                 4.6635

                     58                     59                     60
                      A                      A                      A
 Frequencies --   1303.4611              1332.4215              1348.9388
 Red. masses --      1.4069                 1.2588                 1.2070
 Frc consts  --      1.4083                 1.3167                 1.2941
 IR Inten    --      4.6874                10.1658                 7.3537

                     61                     62                     63
                      A                      A                      A
 Frequencies --   1359.3018              1368.7978              1377.4966
 Red. masses --      1.2635                 1.3231                 1.3185
 Frc consts  --      1.3755                 1.4605                 1.4740
 IR Inten    --      9.9141                 9.7764                 8.2190

                     64                     65                     66
                      A                      A                      A
 Frequencies --   1382.2700              1391.9490              1402.3749
 Red. masses --      1.3417                 1.4051                 1.4301
 Frc consts  --      1.5104                 1.6040                 1.6570
 IR Inten    --      3.3734                 1.3712                 9.2335

                     67                     68                     69
                      A                      A                      A
 Frequencies --   1403.7733              1405.6686              1414.3568
 Red. masses --      1.3081                 1.3386                 1.4132
 Frc consts  --      1.5187                 1.5583                 1.6657
 IR Inten    --     49.8033                 4.0045                 4.8141

                     70                     71                     72
                      A                      A                      A
 Frequencies --   1432.2823              1432.9413              1455.2638
 Red. masses --      1.2431                 1.2607                 1.2826
 Frc consts  --      1.5025                 1.5252                 1.6004
 IR Inten    --     15.1316                14.8513                 1.9605

                     73                     74                     75
                      A                      A                      A
 Frequencies --   1469.9828              1486.8317              1508.6870
 Red. masses --      1.1770                 1.1821                 1.0890
 Frc consts  --      1.4985                 1.5397                 1.4605
 IR Inten    --      5.7079                 0.7642                 0.3528

                     76                     77                     78
                      A                      A                      A
 Frequencies --   1510.8466              1511.8935              1512.8147
 Red. masses --      1.0866                 1.0498                 1.0561
 Frc consts  --      1.4613                 1.4138                 1.4240
 IR Inten    --      3.3292                 8.9740                 0.8150

                     79                     80                     81
                      A                      A                      A
 Frequencies --   1513.5732              1516.3502              1520.3213
 Red. masses --      1.0794                 1.0566                 1.0617
 Frc consts  --      1.4570                 1.4314                 1.4459
 IR Inten    --      8.3762                 5.5446                 2.2643

                     82                     83                     84
                      A                      A                      A
 Frequencies --   1522.3285              1527.4269              1528.9759
 Red. masses --      1.0501                 1.0520                 1.0911
 Frc consts  --      1.4338                 1.4460                 1.5028
 IR Inten    --      6.5361                 7.8718                 2.4249

                     85                     86                     87
                      A                      A                      A
 Frequencies --   1539.6836              1543.6123              1545.0528
 Red. masses --      1.0775                 1.0806                 1.0582
 Frc consts  --      1.5050                 1.5170                 1.4883
 IR Inten    --      1.8407                 2.0976                 8.8549

                     88                     89                     90
                      A                      A                      A
 Frequencies --   1556.9121              2915.4795              2915.9372
 Red. masses --      1.0478                 1.0761                 1.0774
 Frc consts  --      1.4965                 5.3894                 5.3975
 IR Inten    --      4.9319                75.5234                92.7552

                     91                     92                     93
                      A                      A                      A
 Frequencies --   2937.2541              2957.8607              3022.5585
 Red. masses --      1.0624                 1.0618                 1.0685
 Frc consts  --      5.4003                 5.4731                 5.7515
 IR Inten    --    122.4509               112.6023                28.0871

                     94                     95                     96
                      A                      A                      A
 Frequencies --   3024.0471              3031.9099              3034.6266
 Red. masses --      1.0632                 1.0678                 1.0726
 Frc consts  --      5.7288                 5.7835                 5.8198
 IR Inten    --     33.7364                11.6903                62.2769

                     97                     98                     99
                      A                      A                      A
 Frequencies --   3035.9144              3045.8393              3046.9448
 Red. masses --      1.0664                 1.0814                 1.0375
 Frc consts  --      5.7910                 5.9109                 5.6749
 IR Inten    --     15.7722                37.1144                26.8064

                    100                    101                    102
                      A                      A                      A
 Frequencies --   3051.4949              3065.8598              3070.1559
 Red. masses --      1.0363                 1.0937                 1.1007
 Frc consts  --      5.6855                 6.0570                 6.1129
 IR Inten    --     26.8891                93.4427                71.6904

                    103                    104                    105
                      A                      A                      A
 Frequencies --   3073.9280              3075.9333              3080.3157
 Red. masses --      1.0789                 1.0879                 1.1011
 Frc consts  --      6.0065                 6.0647                 6.1553
 IR Inten    --     58.5819                20.0693               107.5295

                    106                    107                    108
                      A                      A                      A
 Frequencies --   3086.2596              3105.2999              3110.0673
 Red. masses --      1.0735                 1.0992                 1.0941
 Frc consts  --      6.0242                 6.2448                 6.2353
 IR Inten    --     31.4876                36.5117                38.6841

                    109                    110                    111
                      A                      A                      A
 Frequencies --   3112.6902              3115.8934              3124.3715
 Red. masses --      1.0951                 1.1009                 1.1023
 Frc consts  --      6.2511                 6.2975                 6.3396
 IR Inten    --     40.4331                61.0291                41.5631

                    112                    113                    114
                      A                      A                      A
 Frequencies --   3128.1198              3131.0813              3181.2368
 Red. masses --      1.0974                 1.1014                 1.0928
 Frc consts  --      6.3266                 6.3619                 6.5159
 IR Inten    --     80.4506                41.6425                 4.7995

 - Thermochemistry -
 -------------------
 Temperature   298.150 Kelvin.  Pressure   1.00000 Atm.
 Atom     1 has atomic number  6 and mass  12.00000

 Molecular mass:   198.20960 amu.
 Principal axes and moments of inertia in atomic units:
                           1         2         3
     Eigenvalues --  2312.429543455.452785088.25050
           X            1.00000   0.00162   0.00166
           Y           -0.00161   0.99999  -0.00502
           Z           -0.00166   0.00501   0.99999
 This molecule is an asymmetric top.
 Rotational symmetry number  1.
 Warning -- assumption of classical behavior for rotation
           may cause significant error
 Rotational temperatures (Kelvin)      0.03746     0.02507     0.01702
 Rotational constants (GHZ):           0.78045     0.52229     0.35469
 Zero-point vibrational energy     985861.2 (Joules/Mol)
                                  235.62649 (Kcal/Mol)
 Warning -- explicit consideration of  26 degrees of freedom as
           vibrations may cause significant error
 Vibrational temperatures:     51.07    83.52   106.80   126.79   192.58
          (Kelvin)            199.28   269.20   273.11   331.58   340.34
                              357.18   376.66   399.06   412.32   442.88
                              485.47   503.30   528.24   564.98   629.96
                              649.70   681.84   714.70   754.68   801.53
                              866.96  1120.74  1145.23  1152.16  1175.83
                             1195.04  1258.46  1277.40  1314.64  1340.54
                             1393.26  1404.97  1451.84  1505.55  1517.15
                             1529.60  1535.49  1552.28  1574.34  1584.27
                             1600.20  1621.94  1635.11  1645.68  1673.34
                             1691.93  1748.30  1775.15  1787.91  1820.83
                             1824.20  1863.97  1875.39  1917.06  1940.82
                             1955.73  1969.39  1981.91  1988.78  2002.70
                             2017.70  2019.72  2022.44  2034.94  2060.73
                             2061.68  2093.80  2114.98  2139.22  2170.66
                             2173.77  2175.28  2176.60  2177.69  2181.69
                             2187.40  2190.29  2197.63  2199.86  2215.26
                             2220.91  2222.99  2240.05  4194.72  4195.38
                             4226.05  4255.70  4348.79  4350.93  4362.24
                             4366.15  4368.00  4382.28  4383.87  4390.42
                             4411.09  4417.27  4422.70  4425.58  4431.89
                             4440.44  4467.83  4474.69  4478.47  4483.08
                             4495.27  4500.67  4504.93  4577.09

 Zero-point correction=                           0.375495 (Hartree/Particle)
 Thermal correction to Energy=                    0.391591
 Thermal correction to Enthalpy=                  0.392535
 Thermal correction to Gibbs Free Energy=         0.332805
 Sum of electronic and zero-point Energies=           -582.047566
 Sum of electronic and thermal Energies=              -582.031470
 Sum of electronic and thermal Enthalpies=            -582.030526
 Sum of electronic and thermal Free Energies=         -582.090256

                     E (Thermal)             CV                S
                      KCal/Mol        Cal/Mol-Kelvin    Cal/Mol-Kelvin
 Total                  245.727             62.243            125.712
 Electronic               0.000              0.000              0.000
 Translational            0.889              2.981             41.757
 Rotational               0.889              2.981             32.075
 Vibrational            243.950             56.282             51.880
 Vibration     1          0.594              1.982              5.496
 Vibration     2          0.596              1.974              4.522
 Vibration     3          0.599              1.966              4.038
 Vibration     4          0.601              1.958              3.701
 Vibration     5          0.613              1.920              2.890
 Vibration     6          0.614              1.915              2.824
 Vibration     7          0.632              1.858              2.256
 Vibration     8          0.633              1.854              2.230
 Vibration     9          0.652              1.794              1.875
 Vibration    10          0.655              1.785              1.829
 Vibration    11          0.662              1.766              1.743
 Vibration    12          0.669              1.743              1.650
 Vibration    13          0.678              1.715              1.550
 Vibration    14          0.684              1.699              1.494
 Vibration    15          0.698              1.659              1.374
 Vibration    16          0.718              1.601              1.224
 Vibration    17          0.727              1.576              1.167
 Vibration    18          0.740              1.540              1.092
 Vibration    19          0.760              1.486              0.990
 Vibration    20          0.798              1.388              0.833
 Vibration    21          0.810              1.357              0.791
 Vibration    22          0.831              1.308              0.727
 Vibration    23          0.852              1.257              0.666
 Vibration    24          0.879              1.196              0.600
 Vibration    25          0.913              1.124              0.530
 Vibration    26          0.961              1.026              0.445

                           ! Non-Optimized Parameters !
 Normal termination of Gaussian 16 at Sun Oct 24 19:42:00 2021.
