 Gaussian 16, Revision C.01,
 Gaussian 16:  ES64L-G16RevC.01  3-Jul-2019

 ----------------------------------------------------
 # opt freq b3lyp/6-31g(d) scrf=(smd,solvent=toluene)
 ----------------------------------------------------

 ----------
 benzNCHCH3
 ----------
 Symbolic Z-matrix:
 Charge =  0 Multiplicity = 1

 SCF Done:  E(RB3LYP) =  -497.680267641     A.U. after   16 cycles
 SCF Done:  E(RB3LYP) =  -497.720282899     A.U. after   14 cycles
 SCF Done:  E(RB3LYP) =  -497.748633155     A.U. after   14 cycles
 SCF Done:  E(RB3LYP) =  -497.759180047     A.U. after   12 cycles
 SCF Done:  E(RB3LYP) =  -497.771697307     A.U. after   14 cycles
 SCF Done:  E(RB3LYP) =  -497.774611229     A.U. after   12 cycles
 SCF Done:  E(RB3LYP) =  -497.775143974     A.U. after   12 cycles
 SCF Done:  E(RB3LYP) =  -497.775817848     A.U. after   12 cycles
 SCF Done:  E(RB3LYP) =  -497.776032239     A.U. after   11 cycles
 SCF Done:  E(RB3LYP) =  -497.776168371     A.U. after   11 cycles
 SCF Done:  E(RB3LYP) =  -497.776236941     A.U. after   11 cycles
 SCF Done:  E(RB3LYP) =  -497.776273622     A.U. after   10 cycles
 SCF Done:  E(RB3LYP) =  -497.776280111     A.U. after    9 cycles
 SCF Done:  E(RB3LYP) =  -497.776281091     A.U. after    9 cycles
 SCF Done:  E(RB3LYP) =  -497.776281585     A.U. after    8 cycles
 Optimization completed.
    -- Stationary point found.
 Normal termination of Gaussian 16 at Wed Sep 29 02:21:52 2021.

 --------------------------------------------------------------------
 #N Geom=AllCheck Guess=TCheck SCRF=Check GenChk RB3LYP/6-31G(d) Freq
 --------------------------------------------------------------------

 Structure from the checkpoint file:  "benzNCHCH3.chk"
 ----------
 benzNCHCH3
 ----------
 Charge =  0 Multiplicity = 1

                         Standard orientation:
 ---------------------------------------------------------------------
 Center     Atomic      Atomic             Coordinates (Angstroms)
 Number     Number       Type             X           Y           Z
 ---------------------------------------------------------------------
      1          6           0       -0.884900   -0.472286   -0.435359
      2          6           0       -0.046328    0.569219    0.031764
      3          6           0       -0.628868    1.768014    0.472795
      4          6           0       -2.010974    1.950006    0.449208
      5          6           0       -2.832833    0.931051   -0.035633
      6          6           0       -2.269355   -0.261436   -0.487528
      7          1           0        0.016956    2.544534    0.874119
      8          1           0       -2.440694    2.880467    0.810170
      9          1           0       -3.911400    1.061240   -0.062440
     10          1           0       -2.895686   -1.055845   -0.883999
     11          7           0       -0.358691   -1.659830   -0.989148
     12          7           0        1.345076    0.334298    0.099971
     13          6           0        0.201883   -2.558870   -0.280559
     14          1           0        0.589508   -3.421423   -0.833543
     15          6           0        2.158681    1.237415   -0.287897
     16          1           0        1.803119    2.180188   -0.731197
     17          6           0        0.408560   -2.599531    1.205208
     18          1           0       -0.201235   -1.860132    1.729928
     19          1           0        0.180360   -3.601280    1.589176
     20          1           0        1.463428   -2.394483    1.430018
     21          6           0        3.640682    1.072173   -0.173665
     22          1           0        4.113675    1.159423   -1.161072
     23          1           0        4.067435    1.869800    0.449827
     24          1           0        3.890545    0.101712    0.263257
 ---------------------------------------------------------------------

 SCF Done:  E(RB3LYP) =  -497.776281585     A.U. after    1 cycles

 The electronic state is 1-A.
 Alpha  occ. eigenvalues --  -14.33029 -14.32669 -10.23426 -10.23313 -10.21555
 Alpha  occ. eigenvalues --  -10.21474 -10.18447 -10.18312 -10.18257 -10.18095
 Alpha  occ. eigenvalues --  -10.18047 -10.17842  -0.93945  -0.91406  -0.83471
 Alpha  occ. eigenvalues --   -0.75698  -0.74948  -0.71814  -0.70497  -0.62083
 Alpha  occ. eigenvalues --   -0.61606  -0.55944  -0.54803  -0.51163  -0.47973
 Alpha  occ. eigenvalues --   -0.46466  -0.44958  -0.44175  -0.42329  -0.42253
 Alpha  occ. eigenvalues --   -0.41372  -0.40975  -0.38897  -0.37704  -0.36833
 Alpha  occ. eigenvalues --   -0.35869  -0.34945  -0.31300  -0.29958  -0.27785
 Alpha  occ. eigenvalues --   -0.26851  -0.23129  -0.20369
 Alpha virt. eigenvalues --   -0.02340  -0.00969   0.02241   0.03621   0.10831
 Alpha virt. eigenvalues --    0.11964   0.12486   0.14486   0.14924   0.15847
 Alpha virt. eigenvalues --    0.16592   0.17140   0.17334   0.18287   0.18874

 Mulliken charges:
               1
     1  C    0.203384
     2  C    0.237052
     3  C   -0.179477
     4  C   -0.155530
     5  C   -0.147475
     6  C   -0.178432
     7  H    0.140292
     8  H    0.138656
     9  H    0.140212
    10  H    0.142206
    11  N   -0.431490
    12  N   -0.444862
    13  C    0.089743
    14  H    0.149169
    15  C    0.104197
    16  H    0.139509
    17  C   -0.495408
    18  H    0.178672
    19  H    0.164075
    20  H    0.187654
    21  C   -0.505947
    22  H    0.175333
    23  H    0.173190
    24  H    0.175276
 Sum of Mulliken charges =   0.00000

 Dipole moment (field-independent basis, Debye):
    X=              1.6603    Y=              0.7351    Z=              1.3237  Tot=              2.2470
 Quadrupole moment (field-independent basis, Debye-Ang):
   XX=            -61.0865   YY=            -60.9484   ZZ=            -74.4248
   XY=              1.8029   XZ=             -1.4404   YZ=             -2.1173

  Exact polarizability:     184.960      -8.099     161.162       1.786      10.093      80.256
 Approx polarizability:     229.578      -8.728     208.044       4.570      17.806     112.143

                      1                      2                      3
                      A                      A                      A
 Frequencies --     56.8093                84.1642                99.4733
 Red. masses --      3.4409                 2.6308                 1.8814
 Frc consts  --      0.0065                 0.0110                 0.0110
 IR Inten    --      3.3428                 4.5884                 8.4962

                      4                      5                      6
                      A                      A                      A
 Frequencies --    111.3307               118.9064               142.2653
 Red. masses --      2.2494                 1.6147                 1.7387
 Frc consts  --      0.0164                 0.0135                 0.0207
 IR Inten    --      0.5444                 1.7462                 0.9087

                      7                      8                      9
                      A                      A                      A
 Frequencies --    194.6609               225.9981               251.2314
 Red. masses --      1.6443                 3.0854                 3.3822
 Frc consts  --      0.0367                 0.0928                 0.1258
 IR Inten    --      0.8153                 1.1829                 2.2239

                     10                     11                     12
                      A                      A                      A
 Frequencies --    337.2546               364.6091               416.1140
 Red. masses --      3.8318                 3.9787                 4.4065
 Frc consts  --      0.2568                 0.3116                 0.4495
 IR Inten    --      0.2017                 3.2387                 1.7744

                     13                     14                     15
                      A                      A                      A
 Frequencies --    473.5316               501.6946               558.7570
 Red. masses --      3.4637                 3.9356                 4.2372
 Frc consts  --      0.4576                 0.5836                 0.7794
 IR Inten    --      4.5285                 0.5488                 6.1112

                     16                     17                     18
                      A                      A                      A
 Frequencies --    577.3953               627.5460               645.1470
 Red. masses --      4.2673                 5.3368                 3.3221
 Frc consts  --      0.8382                 1.2383                 0.8147
 IR Inten    --      5.2807                 1.4141                 4.7609

                     19                     20                     21
                      A                      A                      A
 Frequencies --    737.9946               769.2722               793.9546
 Red. masses --      3.8844                 1.3277                 3.9352
 Frc consts  --      1.2465                 0.4629                 1.4615
 IR Inten    --     11.3724                70.3775                16.5661

                     22                     23                     24
                      A                      A                      A
 Frequencies --    827.4097               860.7101               877.0288
 Red. masses --      2.6047                 1.3703                 1.4272
 Frc consts  --      1.0506                 0.5981                 0.6468
 IR Inten    --     10.7789                21.6424                 1.9579

                     25                     26                     27
                      A                      A                      A
 Frequencies --    905.0797               934.6737               938.6052
 Red. masses --      1.3392                 1.6041                 1.7532
 Frc consts  --      0.6464                 0.8256                 0.9100
 IR Inten    --      6.0529                 9.6928                 3.2679

                     28                     29                     30
                      A                      A                      A
 Frequencies --    963.1561               971.9971              1070.5633
 Red. masses --      2.1385                 1.2443                 2.1170
 Frc consts  --      1.1689                 0.6926                 1.4295
 IR Inten    --     12.2882                 0.1240                 9.2938

                     31                     32                     33
                      A                      A                      A
 Frequencies --   1099.7183              1106.0363              1127.9447
 Red. masses --      1.6340                 1.6353                 2.0437
 Frc consts  --      1.1643                 1.1786                 1.5319
 IR Inten    --      1.0410                 0.7287                13.7604

                     34                     35                     36
                      A                      A                      A
 Frequencies --   1146.1554              1162.3848              1184.3715
 Red. masses --      2.1013                 2.1981                 1.0853
 Frc consts  --      1.6264                 1.7498                 0.8970
 IR Inten    --     37.5630                11.3765                 0.3975

                     37                     38                     39
                      A                      A                      A
 Frequencies --   1211.5217              1242.4356              1302.2704
 Red. masses --      2.3770                 3.1104                 1.6035
 Frc consts  --      2.0556                 2.8289                 1.6022
 IR Inten    --     12.8230                40.7669                 1.9631

                     40                     41                     42
                      A                      A                      A
 Frequencies --   1334.4498              1401.1782              1417.4723
 Red. masses --      7.7193                 1.2574                 1.2304
 Frc consts  --      8.0990                 1.4545                 1.4566
 IR Inten    --      9.5128                 4.0697                11.8664

                     43                     44                     45
                      A                      A                      A
 Frequencies --   1432.9404              1444.7043              1483.7845
 Red. masses --      1.3668                 1.2667                 1.7906
 Frc consts  --      1.6536                 1.5577                 2.3227
 IR Inten    --     13.0686                10.7464                 5.0357

                     46                     47                     48
                      A                      A                      A
 Frequencies --   1491.7284              1494.4256              1497.1689
 Red. masses --      1.1902                 1.0768                 1.0487
 Frc consts  --      1.5605                 1.4169                 1.3849
 IR Inten    --     17.9732                35.8950                10.9435

                     49                     50                     51
                      A                      A                      A
 Frequencies --   1501.8879              1521.6611              1621.9330
 Red. masses --      1.0644                 2.6056                 6.0584
 Frc consts  --      1.4146                 3.5547                 9.3903
 IR Inten    --      9.2361                52.1382                 2.4222

                     52                     53                     54
                      A                      A                      A
 Frequencies --   1643.6826              1740.7601              1755.7379
 Red. masses --      5.7396                 7.4658                 9.3172
 Frc consts  --      9.1363                13.3292                16.9221
 IR Inten    --     21.6696               154.6237               183.9136

                     55                     56                     57
                      A                      A                      A
 Frequencies --   3030.5409              3043.4891              3051.4153
 Red. masses --      1.0771                 1.0467                 1.0383
 Frc consts  --      5.8281                 5.7126                 5.6958
 IR Inten    --     44.8992                26.0111                 7.6176

                     58                     59                     60
                      A                      A                      A
 Frequencies --   3091.1632              3099.2499              3108.1859
 Red. masses --      1.0995                 1.0879                 1.0993
 Frc consts  --      6.1898                 6.1570                 6.2571
 IR Inten    --     13.6879                58.9800                23.7069

                     61                     62                     63
                      A                      A                      A
 Frequencies --   3151.9821              3155.9389              3185.1249
 Red. masses --      1.1012                 1.1011                 1.0850
 Frc consts  --      6.4458                 6.4618                 6.4856
 IR Inten    --     16.0499                19.4059                 0.5723

                     64                     65                     66
                      A                      A                      A
 Frequencies --   3193.1875              3202.3434              3211.9731
 Red. masses --      1.0888                 1.0930                 1.0977
 Frc consts  --      6.5411                 6.6040                 6.6723
 IR Inten    --      8.4363                28.3251                29.2066

 - Thermochemistry -
 -------------------
 Temperature   298.150 Kelvin.  Pressure   1.00000 Atm.
 Atom     1 has atomic number  6 and mass  12.00000

 Molecular mass:   160.10005 amu.
 Principal axes and moments of inertia in atomic units:
                           1         2         3
     Eigenvalues --  1607.997062164.954503370.42072
           X            0.99984   0.01773  -0.00154
           Y           -0.01775   0.99968  -0.01817
           Z            0.00122   0.01819   0.99983
 This molecule is an asymmetric top.
 Rotational symmetry number  1.
 Warning -- assumption of classical behavior for rotation
           may cause significant error
 Rotational temperatures (Kelvin)      0.05386     0.04001     0.02570
 Rotational constants (GHZ):           1.12235     0.83362     0.53546
 Zero-point vibrational energy     522339.1 (Joules/Mol)
                                  124.84205 (Kcal/Mol)
 Warning -- explicit consideration of  16 degrees of freedom as
           vibrations may cause significant error
 Vibrational temperatures:     81.74   121.09   143.12   160.18   171.08
          (Kelvin)            204.69   280.07   325.16   361.47   485.23
                              524.59   598.70   681.31   721.83   803.93
                              830.74   902.90   928.22  1061.81  1106.81
                             1142.32  1190.46  1238.37  1261.85  1302.21
                             1344.79  1350.44  1385.77  1398.49  1540.30
                             1582.25  1591.34  1622.86  1649.06  1672.41
                             1704.05  1743.11  1787.59  1873.68  1919.98
                             2015.98  2039.43  2061.68  2078.61  2134.83
                             2146.26  2150.15  2154.09  2160.88  2189.33
                             2333.60  2364.89  2504.57  2526.12  4360.27
                             4378.90  4390.31  4447.49  4459.13  4471.99
                             4535.00  4540.69  4582.68  4594.28  4607.46
                             4621.31

 Zero-point correction=                           0.198948 (Hartree/Particle)
 Thermal correction to Energy=                    0.210832
 Thermal correction to Enthalpy=                  0.211776
 Thermal correction to Gibbs Free Energy=         0.160638
 Sum of electronic and zero-point Energies=           -497.577333
 Sum of electronic and thermal Energies=              -497.565450
 Sum of electronic and thermal Enthalpies=            -497.564506
 Sum of electronic and thermal Free Energies=         -497.615643

                     E (Thermal)             CV                S
                      KCal/Mol        Cal/Mol-Kelvin    Cal/Mol-Kelvin
 Total                  132.299             43.792            107.628
 Electronic               0.000              0.000              0.000
 Translational            0.889              2.981             41.121
 Rotational               0.889              2.981             30.840
 Vibrational            130.521             37.830             35.667
 Vibration     1          0.596              1.975              4.565
 Vibration     2          0.601              1.960              3.791
 Vibration     3          0.604              1.949              3.465
 Vibration     4          0.607              1.940              3.246
 Vibration     5          0.609              1.934              3.118
 Vibration     6          0.616              1.911              2.773
 Vibration     7          0.635              1.847              2.183
 Vibration     8          0.650              1.801              1.911
 Vibration     9          0.663              1.761              1.722
 Vibration    10          0.718              1.601              1.225
 Vibration    11          0.738              1.545              1.102
 Vibration    12          0.779              1.435              0.905
 Vibration    13          0.830              1.309              0.728
 Vibration    14          0.857              1.246              0.654
 Vibration    15          0.914              1.121              0.526
 Vibration    16          0.934              1.080              0.490

 Optimization completed.
    -- Stationary point found.
 Normal termination of Gaussian 16 at Wed Sep 29 02:26:51 2021.
