 Gaussian 16, Revision C.01,
 Gaussian 16:  ES64L-G16RevC.01  3-Jul-2019

 ----------------------------------------------------
 # opt freq b3lyp/6-31g(d) scrf=(smd,solvent=toluene)
 ----------------------------------------------------

 ----------------
 BenzNCH2PhCH2CH3
 ----------------
 Symbolic Z-matrix:
 Charge =  0 Multiplicity = 1

 SCF Done:  E(RB3LYP) =  -1040.81915110     A.U. after   13 cycles
 SCF Done:  E(RB3LYP) =  -1040.88264941     A.U. after   13 cycles
 SCF Done:  E(RB3LYP) =  -1040.89077196     A.U. after   12 cycles
 SCF Done:  E(RB3LYP) =  -1040.90417140     A.U. after   11 cycles
 SCF Done:  E(RB3LYP) =  -1040.91010394     A.U. after   11 cycles
 SCF Done:  E(RB3LYP) =  -1040.91552791     A.U. after   11 cycles
 SCF Done:  E(RB3LYP) =  -1040.91722762     A.U. after   13 cycles
 SCF Done:  E(RB3LYP) =  -1040.92197089     A.U. after   11 cycles
 SCF Done:  E(RB3LYP) =  -1040.92384136     A.U. after   10 cycles
 SCF Done:  E(RB3LYP) =  -1040.92447626     A.U. after   11 cycles
 SCF Done:  E(RB3LYP) =  -1040.92480013     A.U. after   10 cycles
 SCF Done:  E(RB3LYP) =  -1040.92466069     A.U. after   12 cycles
 SCF Done:  E(RB3LYP) =  -1040.92494729     A.U. after   10 cycles
 SCF Done:  E(RB3LYP) =  -1040.92499851     A.U. after    9 cycles
 SCF Done:  E(RB3LYP) =  -1040.92501445     A.U. after    8 cycles
 SCF Done:  E(RB3LYP) =  -1040.92501933     A.U. after    9 cycles
 SCF Done:  E(RB3LYP) =  -1040.92502184     A.U. after    8 cycles
 SCF Done:  E(RB3LYP) =  -1040.92502242     A.U. after    7 cycles
 SCF Done:  E(RB3LYP) =  -1040.92502262     A.U. after    7 cycles
 Optimization completed.
    -- Stationary point found.
 Normal termination of Gaussian 16 at Sat Oct 23 09:30:27 2021.

 --------------------------------------------------------------------
 #N Geom=AllCheck Guess=TCheck SCRF=Check GenChk RB3LYP/6-31G(d) Freq
 --------------------------------------------------------------------

 Structure from the checkpoint file:  "benzNCH2PhCH2CH3.chk"
 ----------------
 BenzNCH2PhCH2CH3
 ----------------
 Charge =  0 Multiplicity = 1

                         Standard orientation:
 ---------------------------------------------------------------------
 Center     Atomic      Atomic             Coordinates (Angstroms)
 Number     Number       Type             X           Y           Z
 ---------------------------------------------------------------------
      1          6           0       -0.736822    1.311593    0.845387
      2          6           0        0.680439    1.193895    0.999452
      3          6           0        1.201984    0.989976    2.285313
      4          6           0        0.381951    0.874924    3.408786
      5          6           0       -0.997629    0.945269    3.253473
      6          6           0       -1.540278    1.163343    1.985584
      7          1           0        2.275629    0.888240    2.403970
      8          1           0        0.824666    0.706558    4.387006
      9          1           0       -1.659081    0.846870    4.110365
     10          1           0       -2.616361    1.244111    1.893529
     11          7           0       -1.298309    1.565705   -0.443760
     12          7           0        1.540392    1.311161   -0.132359
     13          6           0        1.476484    0.174836   -1.081566
     14          1           0        1.917331    0.503388   -2.028341
     15          1           0        0.417835   -0.013013   -1.269158
     16          6           0       -2.720591    1.251415   -0.630704
     17          1           0       -3.368711    1.807141    0.068893
     18          1           0       -2.982839    1.621976   -1.626967
     19          6           0        2.885050    1.845902    0.114006
     20          1           0        3.581227    1.077060    0.489707
     21          1           0        2.789728    2.597420    0.903748
     22          6           0       -0.957514    2.896195   -1.001493
     23          1           0       -1.717307    3.633865   -0.688382
     24          1           0       -0.010139    3.204618   -0.561138
     25          6           0        3.494096    2.516580   -1.119659
     26          1           0        4.449958    2.981000   -0.849353
     27          1           0        3.696213    1.809411   -1.931082
     28          1           0        2.830961    3.297522   -1.508324
     29          6           0       -0.817152    2.905900   -2.522811
     30          1           0       -1.736318    2.600544   -3.035929
     31          1           0       -0.576732    3.920118   -2.864952
     32          1           0       -0.011510    2.237523   -2.843119
     33          6           0       -3.058551   -0.228117   -0.575955
     34          6           0       -4.060816   -0.706026    0.275678
     35          6           0       -2.416157   -1.138059   -1.427991
     36          6           0       -4.409965   -2.058840    0.286505
     37          1           0       -4.576238   -0.012868    0.937056
     38          6           0       -2.756846   -2.490426   -1.417067
     39          1           0       -1.647817   -0.778626   -2.107153
     40          6           0       -3.755731   -2.956216   -0.557582
     41          1           0       -5.189676   -2.409579    0.957915
     42          1           0       -2.246326   -3.180790   -2.083796
     43          1           0       -4.022061   -4.009959   -0.548920
     44          6           0        2.166136   -1.102104   -0.623143
     45          6           0        3.472564   -1.401966   -1.035964
     46          6           0        1.515582   -2.006488    0.230976
     47          6           0        4.117267   -2.563198   -0.604087
     48          1           0        3.987674   -0.724122   -1.713623
     49          6           0        2.156065   -3.167917    0.665210
     50          1           0        0.496872   -1.804008    0.549325
     51          6           0        3.460253   -3.449203    0.251140
     52          1           0        5.129270   -2.776899   -0.939338
     53          1           0        1.632699   -3.857594    1.322808
     54          1           0        3.957569   -4.355580    0.587142
 ---------------------------------------------------------------------

 SCF Done:  E(RB3LYP) =  -1040.92502262     A.U. after    1 cycles

 The electronic state is 1-A.
 Alpha  occ. eigenvalues --  -14.33194 -14.32690 -10.21117 -10.20955 -10.20902
 Alpha  occ. eigenvalues --  -10.20192 -10.20158 -10.20101 -10.19057 -10.18421
 Alpha  occ. eigenvalues --  -10.18413 -10.18384 -10.18313 -10.18296 -10.18208
 Alpha  occ. eigenvalues --  -10.18133 -10.18129 -10.18073 -10.18045 -10.17747
 Alpha  occ. eigenvalues --  -10.17456 -10.17395 -10.17358 -10.17303 -10.17006
 Alpha  occ. eigenvalues --  -10.16846  -0.93479  -0.91094  -0.84692  -0.84289
 Alpha  occ. eigenvalues --   -0.82597  -0.76353  -0.75780  -0.74923  -0.74287
 Alpha  occ. eigenvalues --   -0.73703  -0.73356  -0.71682  -0.70623  -0.66990
 Alpha  occ. eigenvalues --   -0.65759  -0.61518  -0.60546  -0.59813  -0.59415
 Alpha  occ. eigenvalues --   -0.58512  -0.57963  -0.55894  -0.55169  -0.51729
 Alpha  occ. eigenvalues --   -0.50447  -0.49664  -0.48163  -0.46999  -0.46615
 Alpha  occ. eigenvalues --   -0.45931  -0.45393  -0.44800  -0.44173  -0.43678
 Alpha  occ. eigenvalues --   -0.43241  -0.42720  -0.42036  -0.41443  -0.41004
 Alpha  occ. eigenvalues --   -0.40818  -0.40322  -0.40046  -0.38356  -0.38234
 Alpha  occ. eigenvalues --   -0.37582  -0.36841  -0.36251  -0.36018  -0.35529
 Alpha  occ. eigenvalues --   -0.35471  -0.34971  -0.34516  -0.33910  -0.33609
 Alpha  occ. eigenvalues --   -0.33422  -0.33173  -0.32925  -0.32667  -0.32526
 Alpha  occ. eigenvalues --   -0.26086  -0.25231  -0.24495  -0.24027  -0.23882
 Alpha  occ. eigenvalues --   -0.23674  -0.20748  -0.18320
 Alpha virt. eigenvalues --   -0.00124   0.00113   0.00465   0.00654   0.01699
 Alpha virt. eigenvalues --    0.01830   0.08345   0.09261   0.10099   0.10829
 Alpha virt. eigenvalues --    0.11568   0.12369   0.12848   0.13763   0.14290

 Mulliken charges:
               1
     1  C    0.266912
     2  C    0.256973
     3  C   -0.193732
     4  C   -0.156926
     5  C   -0.156329
     6  C   -0.194829
     7  H    0.142728
     8  H    0.133044
     9  H    0.132090
    10  H    0.133957
    11  N   -0.485204
    12  N   -0.471870
    13  C   -0.267418
    14  H    0.150833
    15  H    0.189842
    16  C   -0.233679
    17  H    0.137427
    18  H    0.167641
    19  C   -0.124592
    20  H    0.137005
    21  H    0.153933
    22  C   -0.122628
    23  H    0.126277
    24  H    0.170026
    25  C   -0.467205
    26  H    0.149182
    27  H    0.153890
    28  H    0.155197
    29  C   -0.463301
    30  H    0.151080
    31  H    0.146650
    32  H    0.162428
    33  C    0.166371
    34  C   -0.195748
    35  C   -0.183143
    36  C   -0.141387
    37  H    0.136095
    38  C   -0.143388
    39  H    0.147360
    40  C   -0.142774
    41  H    0.140594
    42  H    0.143014
    43  H    0.140642
    44  C    0.163289
    45  C   -0.196058
    46  C   -0.191872
    47  C   -0.143477
    48  H    0.135194
    49  C   -0.144947
    50  H    0.156879
    51  C   -0.143883
    52  H    0.138168
    53  H    0.141163
    54  H    0.138507
 Sum of Mulliken charges =  -0.00000

 Dipole moment (field-independent basis, Debye):
    X=              0.0217    Y=              0.5714    Z=             -0.6580  Tot=              0.8717
 Quadrupole moment (field-independent basis, Debye-Ang):
   XX=           -142.9049   YY=           -147.8682   ZZ=           -151.6266
   XY=              0.1965   XZ=             -4.0060   YZ=             -3.8092

  Exact polarizability:     328.233      -4.750     293.017     -44.246     -24.236     277.642
 Approx polarizability:     423.712      -9.378     372.631     -68.878     -38.542     384.958

                      1                      2                      3
                      A                      A                      A
 Frequencies --     17.6932                23.8011                31.1251
 Red. masses --      5.2487                 4.5348                 4.2128
 Frc consts  --      0.0010                 0.0015                 0.0024
 IR Inten    --      0.0222                 0.0364                 0.0203

                      4                      5                      6
                      A                      A                      A
 Frequencies --     43.3601                51.4638                61.8323
 Red. masses --      4.4355                 4.0084                 4.0824
 Frc consts  --      0.0049                 0.0063                 0.0092
 IR Inten    --      0.1775                 0.2938                 0.0352

                      7                      8                      9
                      A                      A                      A
 Frequencies --     66.9080                75.9307                87.6576
 Red. masses --      3.2172                 3.5351                 2.7583
 Frc consts  --      0.0085                 0.0120                 0.0125
 IR Inten    --      0.0748                 0.1772                 0.1646

                     10                     11                     12
                      A                      A                      A
 Frequencies --    104.0487               127.2819               144.2343
 Red. masses --      3.2092                 2.6246                 3.4574
 Frc consts  --      0.0205                 0.0251                 0.0424
 IR Inten    --      0.1297                 1.1573                 0.6346

                     13                     14                     15
                      A                      A                      A
 Frequencies --    152.5220               193.0329               206.9838
 Red. masses --      1.9680                 2.9613                 1.6097
 Frc consts  --      0.0270                 0.0650                 0.0406
 IR Inten    --      2.2487                 1.1581                 0.3579

                     16                     17                     18
                      A                      A                      A
 Frequencies --    219.4510               238.2927               247.2039
 Red. masses --      2.4980                 3.6283                 3.4225
 Frc consts  --      0.0709                 0.1214                 0.1232
 IR Inten    --      0.0476                 1.4400                 0.1604

                     19                     20                     21
                      A                      A                      A
 Frequencies --    271.2798               302.0782               319.7091
 Red. masses --      1.7541                 3.0720                 2.5733
 Frc consts  --      0.0761                 0.1652                 0.1550
 IR Inten    --      0.7505                 1.3607                 3.0826

                     22                     23                     24
                      A                      A                      A
 Frequencies --    354.1607               374.1725               381.4089
 Red. masses --      3.5392                 2.6436                 3.2094
 Frc consts  --      0.2615                 0.2181                 0.2751
 IR Inten    --      1.7782                 2.0219                 0.4902

                     25                     26                     27
                      A                      A                      A
 Frequencies --    394.1836               405.6436               419.6133
 Red. masses --      2.3436                 2.3524                 3.0336
 Frc consts  --      0.2146                 0.2281                 0.3147
 IR Inten    --      2.3145                 3.6567                 0.2738

                     28                     29                     30
                      A                      A                      A
 Frequencies --    420.2387               421.9561               484.0981
 Red. masses --      3.0019                 3.2401                 3.4554
 Frc consts  --      0.3123                 0.3399                 0.4771
 IR Inten    --      0.2075                 2.8129                 5.5135

                     31                     32                     33
                      A                      A                      A
 Frequencies --    491.5626               522.2299               555.7337
 Red. masses --      3.8486                 3.5720                 4.0281
 Frc consts  --      0.5479                 0.5740                 0.7330
 IR Inten    --      3.3396                 2.8166                14.6946

                     34                     35                     36
                      A                      A                      A
 Frequencies --    567.4630               575.5215               609.0410
 Red. masses --      3.6635                 4.2824                 4.8342
 Frc consts  --      0.6951                 0.8357                 1.0565
 IR Inten    --      7.8333                 4.9432                 6.3181

                     37                     38                     39
                      A                      A                      A
 Frequencies --    623.0395               623.9239               635.3469
 Red. masses --      4.0900                 4.2127                 6.2534
 Frc consts  --      0.9354                 0.9662                 1.4873
 IR Inten    --     17.7509                 8.8893                 0.1483

                     40                     41                     42
                      A                      A                      A
 Frequencies --    635.3988               705.9899               716.3857
 Red. masses --      6.2120                 4.0885                 2.1210
 Frc consts  --      1.4777                 1.2006                 0.6413
 IR Inten    --      0.2304                 7.6587                11.3219

                     43                     44                     45
                      A                      A                      A
 Frequencies --    716.7673               751.3284               761.0052
 Red. masses --      1.7131                 1.8653                 2.4103
 Frc consts  --      0.5185                 0.6204                 0.8224
 IR Inten    --     52.2287                15.1530                36.1445

                     46                     47                     48
                      A                      A                      A
 Frequencies --    766.9255               773.6057               790.2429
 Red. masses --      1.4210                 2.3728                 1.7792
 Frc consts  --      0.4924                 0.8366                 0.6546
 IR Inten    --     58.5758                40.6934                10.2495

                     49                     50                     51
                      A                      A                      A
 Frequencies --    803.0192               823.6304               832.2629
 Red. masses --      1.8311                 1.3364                 2.4307
 Frc consts  --      0.6957                 0.5341                 0.9920
 IR Inten    --      9.4274                 7.2829                 5.4001

                     52                     53                     54
                      A                      A                      A
 Frequencies --    837.4314               862.8322               865.0529
 Red. masses --      3.5508                 1.2846                 1.2682
 Frc consts  --      1.4671                 0.5635                 0.5591
 IR Inten    --      4.8298                 0.0931                 0.0594

                     55                     56                     57
                      A                      A                      A
 Frequencies --    866.9955               896.9166               917.5633
 Red. masses --      1.4928                 2.5345                 2.3201
 Frc consts  --      0.6611                 1.2013                 1.1509
 IR Inten    --      0.4083                11.5115                16.4901

                     58                     59                     60
                      A                      A                      A
 Frequencies --    925.4085               928.9958               935.5482
 Red. masses --      1.3882                 1.3955                 1.4856
 Frc consts  --      0.7004                 0.7096                 0.7661
 IR Inten    --      4.9852                 8.6811                 4.9206

                     61                     62                     63
                      A                      A                      A
 Frequencies --    964.6512               971.7543               974.1925
 Red. masses --      1.2397                 1.3565                 1.3497
 Frc consts  --      0.6797                 0.7547                 0.7547
 IR Inten    --      0.0993                 0.1149                 0.3944

                     64                     65                     66
                      A                      A                      A
 Frequencies --    994.3336               997.2261               997.6946
 Red. masses --      2.1016                 1.3840                 1.2916
 Frc consts  --      1.2243                 0.8109                 0.7575
 IR Inten    --      1.8488                 5.7943                 2.1215

                     67                     68                     69
                      A                      A                      A
 Frequencies --   1003.3652              1007.1915              1017.5888
 Red. masses --      1.9351                 2.1553                 5.9649
 Frc consts  --      1.1478                 1.2882                 3.6391
 IR Inten    --     22.9411                14.2524                 0.6288

                     70                     71                     72
                      A                      A                      A
 Frequencies --   1018.1633              1028.1693              1057.5121
 Red. masses --      5.3165                 2.6790                 2.2208
 Frc consts  --      3.2472                 1.6686                 1.4633
 IR Inten    --      2.7947                14.2600                 8.1417

                     73                     74                     75
                      A                      A                      A
 Frequencies --   1057.6518              1089.0321              1090.4750
 Red. masses --      2.2647                 2.5155                 2.5160
 Frc consts  --      1.4926                 1.7577                 1.7628
 IR Inten    --      1.8560                13.9669                12.1785

                     76                     77                     78
                      A                      A                      A
 Frequencies --   1100.7170              1114.3934              1116.9334
 Red. masses --      2.0765                 1.7927                 1.6359
 Frc consts  --      1.4823                 1.3117                 1.2025
 IR Inten    --     36.2134                23.9210                 3.2702

                     79                     80                     81
                      A                      A                      A
 Frequencies --   1125.1833              1138.8803              1157.0041
 Red. masses --      1.9846                 2.0217                 1.9655
 Frc consts  --      1.4804                 1.5450                 1.5502
 IR Inten    --     19.0617                29.8942                45.7684

                     82                     83                     84
                      A                      A                      A
 Frequencies --   1181.8678              1187.3081              1187.5519
 Red. masses --      1.8996                 1.0976                 1.1210
 Frc consts  --      1.5633                 0.9116                 0.9315
 IR Inten    --     15.0515                 0.8736                 5.1489

                     85                     86                     87
                      A                      A                      A
 Frequencies --   1189.4278              1195.7601              1206.9673
 Red. masses --      2.0502                 1.1036                 1.1303
 Frc consts  --      1.7089                 0.9297                 0.9701
 IR Inten    --     91.3068                 1.1313                 0.7429

                     88                     89                     90
                      A                      A                      A
 Frequencies --   1210.1778              1219.2096              1231.3270
 Red. masses --      1.1727                 2.8926                 2.7881
 Frc consts  --      1.0119                 2.5334                 2.4906
 IR Inten    --      2.8755                 7.7637                 3.4560

                     91                     92                     93
                      A                      A                      A
 Frequencies --   1234.4097              1265.1412              1291.3555
 Red. masses --      1.9362                 1.8353                 1.7311
 Frc consts  --      1.7383                 1.7307                 1.7009
 IR Inten    --     64.7969                53.0899                64.3948

                     94                     95                     96
                      A                      A                      A
 Frequencies --   1317.2234              1325.1947              1334.1414
 Red. masses --      1.4747                 1.7142                 4.7932
 Frc consts  --      1.5076                 1.7737                 5.0266
 IR Inten    --     28.1659                 8.0538                13.6926

                     97                     98                     99
                      A                      A                      A
 Frequencies --   1347.2619              1354.4403              1362.9111
 Red. masses --      1.3102                 2.3758                 2.6617
 Frc consts  --      1.4012                 2.5679                 2.9131
 IR Inten    --     17.9978                 5.2752                 0.6188

                    100                    101                    102
                      A                      A                      A
 Frequencies --   1365.7109              1369.9025              1376.2375
 Red. masses --      1.5680                 1.5311                 1.2892
 Frc consts  --      1.7231                 1.6929                 1.4387
 IR Inten    --      1.1054                13.4560                15.6314

                    103                    104                    105
                      A                      A                      A
 Frequencies --   1394.3836              1415.0785              1419.3979
 Red. masses --      1.4370                 1.2771                 1.3347
 Frc consts  --      1.6461                 1.5067                 1.5844
 IR Inten    --      1.2948                31.4957                19.9124

                    106                    107                    108
                      A                      A                      A
 Frequencies --   1429.7720              1440.2324              1441.9556
 Red. masses --      1.4367                 1.3089                 1.2863
 Frc consts  --      1.7305                 1.5996                 1.5757
 IR Inten    --     18.5684                11.8522                43.4398

                    109                    110                    111
                      A                      A                      A
 Frequencies --   1490.5133              1498.4161              1498.9048
 Red. masses --      2.0529                 2.1651                 2.1128
 Frc consts  --      2.6871                 2.8642                 2.7968
 IR Inten    --     23.9893                11.6615                 6.8995

                    112                    113                    114
                      A                      A                      A
 Frequencies --   1504.2168              1509.3459              1517.3175
 Red. masses --      1.1391                 1.0757                 1.0632
 Frc consts  --      1.5186                 1.4438                 1.4421
 IR Inten    --      7.2634                 0.9778                 3.2044

                    115                    116                    117
                      A                      A                      A
 Frequencies --   1517.6995              1525.8174              1527.3026
 Red. masses --      1.0796                 1.0743                 1.1935
 Frc consts  --      1.4651                 1.4736                 1.6403
 IR Inten    --      2.7800                 8.3622                36.4795

                    118                    119                    120
                      A                      A                      A
 Frequencies --   1533.0945              1537.5601              1539.9861
 Red. masses --      1.4845                 1.1434                 1.4076
 Frc consts  --      2.0557                 1.5926                 1.9668
 IR Inten    --     49.4377                 6.6828                18.1614

                    121                    122                    123
                      A                      A                      A
 Frequencies --   1543.1431              1546.4163              1626.6531
 Red. masses --      2.1136                 1.8245                 5.3969
 Frc consts  --      2.9654                 2.5707                 8.4136
 IR Inten    --     13.7875                 8.1787                 0.0207

                    124                    125                    126
                      A                      A                      A
 Frequencies --   1641.3123              1644.3635              1647.0794
 Red. masses --      5.4347                 5.5669                 5.3269
 Frc consts  --      8.6260                 8.8688                 8.5144
 IR Inten    --      0.5884                 3.0224                33.2475

                    127                    128                    129
                      A                      A                      A
 Frequencies --   1660.6615              1664.1625              2968.6954
 Red. masses --      5.5955                 5.6653                 1.0750
 Frc consts  --      9.0918                 9.2440                 5.5822
 IR Inten    --      2.0746                 2.1852                30.5854

                    130                    131                    132
                      A                      A                      A
 Frequencies --   2973.1370              2980.8398              3052.4963
 Red. masses --      1.0745                 1.0722                 1.0371
 Frc consts  --      5.5963                 5.6129                 5.6935
 IR Inten    --    179.3952                58.7164                20.4563

                    133                    134                    135
                      A                      A                      A
 Frequencies --   3053.6736              3077.9628              3088.3527
 Red. masses --      1.0364                 1.0659                 1.0859
 Frc consts  --      5.6938                 5.9496                 6.1022
 IR Inten    --     22.3248                52.7705                28.3284

                    136                    137                    138
                      A                      A                      A
 Frequencies --   3095.3258              3109.8499              3118.9278
 Red. masses --      1.0903                 1.1002                 1.1010
 Frc consts  --      6.1549                 6.2688                 6.3100
 IR Inten    --      6.2773                39.6910                45.7001

                    139                    140                    141
                      A                      A                      A
 Frequencies --   3127.7138              3130.0185              3143.4974
 Red. masses --      1.1020                 1.1012                 1.0985
 Frc consts  --      6.3515                 6.3564                 6.3955
 IR Inten    --     60.3838                39.1485                 4.8022

                    142                    143                    144
                      A                      A                      A
 Frequencies --   3161.9023              3173.7122              3176.5624
 Red. masses --      1.0893                 1.0862                 1.0865
 Frc consts  --      6.4167                 6.4464                 6.4593
 IR Inten    --     20.6406                 9.7900                10.2232

                    145                    146                    147
                      A                      A                      A
 Frequencies --   3183.2091              3183.5171              3184.8408
 Red. masses --      1.0869                 1.0857                 1.0866
 Frc consts  --      6.4891                 6.4832                 6.4940
 IR Inten    --      2.2887                 1.8166                 0.8984

                    148                    149                    150
                      A                      A                      A
 Frequencies --   3192.3928              3193.6801              3199.0029
 Red. masses --      1.0913                 1.0906                 1.0926
 Frc consts  --      6.5531                 6.5539                 6.5876
 IR Inten    --     29.8701                21.7662                36.7862

                    151                    152                    153
                      A                      A                      A
 Frequencies --   3202.0023              3202.6123              3210.3417
 Red. masses --      1.0937                 1.0940                 1.0971
 Frc consts  --      6.6071                 6.6111                 6.6618
 IR Inten    --     69.7634                24.3539                 5.5377

                    154                    155                    156
                      A                      A                      A
 Frequencies --   3210.7365              3215.9576              3233.3585
 Red. masses --      1.0977                 1.0931                 1.0907
 Frc consts  --      6.6669                 6.6611                 6.7184
 IR Inten    --     23.7177                22.2838                18.0564

 - Thermochemistry -
 -------------------
 Temperature   298.150 Kelvin.  Pressure   1.00000 Atm.
 Atom     1 has atomic number  6 and mass  12.00000

 Molecular mass:   344.22525 amu.
 Principal axes and moments of inertia in atomic units:
                           1         2         3
     Eigenvalues --  7312.85521********************
           X            0.99991   0.01133  -0.00749
           Y           -0.01164   0.99897  -0.04376
           Z            0.00699   0.04384   0.99901
 This molecule is an asymmetric top.
 Rotational symmetry number  1.
 Warning -- assumption of classical behavior for rotation
           may cause significant error
 Rotational temperatures (Kelvin)      0.01184     0.00817     0.00675
 Rotational constants (GHZ):           0.24679     0.17013     0.14074
 Zero-point vibrational energy    1227926.5 (Joules/Mol)
                                  293.48148 (Kcal/Mol)
 Warning -- explicit consideration of  36 degrees of freedom as
           vibrations may cause significant error
 Vibrational temperatures:     25.46    34.24    44.78    62.39    74.04
          (Kelvin)             88.96    96.27   109.25   126.12   149.70
                              183.13   207.52   219.45   277.73   297.80
                              315.74   342.85   355.67   390.31   434.62
                              459.99   509.56   538.35   548.76   567.14
                              583.63   603.73   604.63   607.10   696.51
                              707.25   751.37   799.58   816.45   828.05
                              876.27   896.41   897.69   914.12   914.20
                             1015.76  1030.72  1031.27  1080.99  1094.92
                             1103.43  1113.05  1136.98  1155.37  1185.02
                             1197.44  1204.88  1241.42  1244.62  1247.41
                             1290.46  1320.17  1331.46  1336.62  1346.05
                             1387.92  1398.14  1401.65  1430.62  1434.79
                             1435.46  1443.62  1449.12  1464.08  1464.91
                             1479.31  1521.52  1521.73  1566.87  1568.95
                             1583.69  1603.36  1607.02  1618.89  1638.59
                             1664.67  1700.44  1708.27  1708.62  1711.32
                             1720.43  1736.56  1741.18  1754.17  1771.60
                             1776.04  1820.26  1857.97  1895.19  1906.66
                             1919.53  1938.41  1948.74  1960.93  1964.95
                             1970.98  1980.10  2006.21  2035.98  2042.20
                             2057.12  2072.17  2074.65  2144.52  2155.89
                             2156.59  2164.23  2171.61  2183.08  2183.63
                             2195.31  2197.45  2205.78  2212.21  2215.70
                             2220.24  2224.95  2340.39  2361.48  2365.87
                             2369.78  2389.32  2394.36  4271.29  4277.68
                             4288.76  4391.86  4393.56  4428.50  4443.45
                             4453.48  4474.38  4487.44  4500.08  4503.40
                             4522.79  4549.27  4566.26  4570.36  4579.93
                             4580.37  4582.28  4593.14  4594.99  4602.65
                             4606.97  4607.84  4618.97  4619.53  4627.05
                             4652.08

 Zero-point correction=                           0.467693 (Hartree/Particle)
 Thermal correction to Energy=                    0.491634
 Thermal correction to Enthalpy=                  0.492579
 Thermal correction to Gibbs Free Energy=         0.412008
 Sum of electronic and zero-point Energies=          -1040.457330
 Sum of electronic and thermal Energies=             -1040.433388
 Sum of electronic and thermal Enthalpies=           -1040.432444
 Sum of electronic and thermal Free Energies=        -1040.513015

                     E (Thermal)             CV                S
                      KCal/Mol        Cal/Mol-Kelvin    Cal/Mol-Kelvin
 Total                  308.505             93.920            169.576
 Electronic               0.000              0.000              0.000
 Translational            0.889              2.981             43.403
 Rotational               0.889              2.981             35.252
 Vibrational            306.728             87.959             90.921
 Vibration     1          0.593              1.986              6.878
 Vibration     2          0.593              1.985              6.289
 Vibration     3          0.594              1.983              5.756
 Vibration     4          0.595              1.980              5.099
 Vibration     5          0.596              1.977              4.760
 Vibration     6          0.597              1.973              4.398
 Vibration     7          0.598              1.970              4.242
 Vibration     8          0.599              1.965              3.993
 Vibration     9          0.601              1.958              3.712
 Vibration    10          0.605              1.946              3.377
 Vibration    11          0.611              1.926              2.987
 Vibration    12          0.616              1.909              2.747
 Vibration    13          0.619              1.900              2.641
 Vibration    14          0.635              1.850              2.199
 Vibration    15          0.641              1.830              2.070
 Vibration    16          0.647              1.811              1.964
 Vibration    17          0.656              1.782              1.816
 Vibration    18          0.661              1.767              1.750
 Vibration    19          0.675              1.726              1.588
 Vibration    20          0.694              1.670              1.405
 Vibration    21          0.706              1.636              1.312
 Vibration    22          0.730              1.567              1.148
 Vibration    23          0.745              1.525              1.063
 Vibration    24          0.751              1.510              1.034
 Vibration    25          0.761              1.483              0.984
 Vibration    26          0.771              1.458              0.942
 Vibration    27          0.782              1.428              0.893
 Vibration    28          0.783              1.426              0.891
 Vibration    29          0.784              1.423              0.885
 Vibration    30          0.840              1.285              0.699
 Vibration    31          0.847              1.269              0.680
 Vibration    32          0.877              1.201              0.605
 Vibration    33          0.911              1.127              0.532
 Vibration    34          0.923              1.102              0.509
 Vibration    35          0.932              1.084              0.494
 Vibration    36          0.968              1.013              0.434

 Optimization completed.
    -- Stationary point found.
 Normal termination of Gaussian 16 at Sat Oct 23 10:29:56 2021.
