 Gaussian 16, Revision C.01,
 Gaussian 16:  ES64L-G16RevC.01  3-Jul-2019

 ----------------------------------------------------
 # opt freq b3lyp/6-31g(d) scrf=(smd,solvent=toluene)
 ----------------------------------------------------

 ------
 Y7HPDB
 ------
 Symbolic Z-matrix:
 Charge =  0 Multiplicity = 1

 SCF Done:  E(RB3LYP) =  -651.420938544     A.U. after   13 cycles
 SCF Done:  E(RB3LYP) =  -651.420941578     A.U. after    8 cycles
 SCF Done:  E(RB3LYP) =  -651.420941711     A.U. after    7 cycles
 SCF Done:  E(RB3LYP) =  -651.420941770     A.U. after    6 cycles
 Optimization completed.
    -- Stationary point found.
 Normal termination of Gaussian 16 at Thu Nov 18 12:27:26 2021.

 --------------------------------------------------------------------
 #N Geom=AllCheck Guess=TCheck SCRF=Check GenChk RB3LYP/6-31G(d) Freq
 --------------------------------------------------------------------

 Structure from the checkpoint file:  "Y7HPDB.chk"
 ------
 Y7HPDB
 ------
 Charge =  0 Multiplicity = 1

                         Standard orientation:
 ---------------------------------------------------------------------
 Center     Atomic      Atomic             Coordinates (Angstroms)
 Number     Number       Type             X           Y           Z
 ---------------------------------------------------------------------
      1          6           0       -0.887049    2.447463   -0.105724
      2          6           0       -0.148990    1.273118   -0.191085
      3          6           0       -0.818371   -0.000344   -0.129912
      4          6           0       -2.246102    0.000235    0.050906
      5          6           0       -2.953209    1.230457    0.134645
      6          6           0       -2.286880    2.428923    0.053216
      7          1           0       -0.365457    3.395133   -0.200874
      8          6           0       -0.149861   -1.274252   -0.190484
      9          6           0       -2.953542   -1.229391    0.140354
     10          1           0       -4.032625    1.201222    0.259116
     11          1           0       -2.831032    3.368134    0.109582
     12          6           0       -2.287594   -2.428372    0.063501
     13          6           0       -0.888176   -2.447936   -0.098880
     14          1           0       -4.032834   -1.199310    0.265840
     15          1           0       -2.831844   -3.367183    0.125249
     16          1           0       -0.367142   -3.396096   -0.192417
     17          7           0        1.235334    1.348970   -0.428547
     18          7           0        1.233219   -1.352269   -0.435239
     19          6           0        1.975153    2.046126    0.339636
     20          1           0        1.569042    2.528798    1.242772
     21          6           0        1.976819   -2.043799    0.334385
     22          1           0        1.575244   -2.519276    1.243325
     23          6           0        3.432789    2.248078    0.069019
     24          1           0        3.654703    3.317692   -0.048282
     25          1           0        4.034663    1.894598    0.917131
     26          1           0        3.734830    1.716451   -0.837034
     27          6           0        3.433060   -2.248156    0.058160
     28          1           0        4.039088   -1.885111    0.899274
     29          1           0        3.655035   -3.318843   -0.048588
     30          1           0        3.730173   -1.726010   -0.855012
 ---------------------------------------------------------------------

 SCF Done:  E(RB3LYP) =  -651.420941770     A.U. after    1 cycles

 The electronic state is 1-A.
 Alpha  occ. eigenvalues --  -14.32813 -14.32812 -10.23150 -10.23142 -10.21991
 Alpha  occ. eigenvalues --  -10.21989 -10.19736 -10.19400 -10.18445 -10.18443
 Alpha  occ. eigenvalues --  -10.18104 -10.18099 -10.18060 -10.18056 -10.17980
 Alpha  occ. eigenvalues --  -10.17977  -0.93720  -0.92389  -0.85602  -0.80930
 Alpha  occ. eigenvalues --   -0.77124  -0.74518  -0.73488  -0.71782  -0.69195
 Alpha  occ. eigenvalues --   -0.62508  -0.61387  -0.60419  -0.56499  -0.54059
 Alpha  occ. eigenvalues --   -0.51775  -0.50773  -0.49263  -0.48037  -0.45058
 Alpha  occ. eigenvalues --   -0.44591  -0.42738  -0.42083  -0.41855  -0.41382
 Alpha  occ. eigenvalues --   -0.40502  -0.39617  -0.38901  -0.38443  -0.37659
 Alpha  occ. eigenvalues --   -0.37119  -0.34475  -0.33981  -0.32732  -0.32109
 Alpha  occ. eigenvalues --   -0.29222  -0.29063  -0.24878  -0.24051  -0.23690
 Alpha  occ. eigenvalues --   -0.18924
 Alpha virt. eigenvalues --   -0.03327  -0.02115  -0.00266   0.02474   0.05551
 Alpha virt. eigenvalues --    0.10808   0.10859   0.11155   0.12629   0.13325
 Alpha virt. eigenvalues --    0.14039   0.15003   0.15911   0.16381   0.16907

 Mulliken charges:
               1
     1  C   -0.176184
     2  C    0.177403
     3  C    0.087082
     4  C    0.103901
     5  C   -0.207770
     6  C   -0.150629
     7  H    0.137976
     8  C    0.176833
     9  C   -0.207859
    10  H    0.138981
    11  H    0.142214
    12  C   -0.150571
    13  C   -0.176160
    14  H    0.138949
    15  H    0.142205
    16  H    0.137908
    17  N   -0.402256
    18  N   -0.401578
    19  C    0.093369
    20  H    0.134201
    21  C    0.093464
    22  H    0.134190
    23  C   -0.506307
    24  H    0.172270
    25  H    0.169392
    26  H    0.181844
    27  C   -0.506273
    28  H    0.169455
    29  H    0.172142
    30  H    0.181809
 Sum of Mulliken charges =   0.00000

 Dipole moment (field-independent basis, Debye):
    X=              1.7475    Y=              0.0124    Z=              2.4811  Tot=              3.0348
 Quadrupole moment (field-independent basis, Debye-Ang):
   XX=            -77.9342   YY=            -78.2725   ZZ=            -97.7080
   XY=              0.0066   XZ=              3.5177   YZ=             -0.0226

  Exact polarizability:     277.432       0.030     246.977       0.563      -0.165      86.138
 Approx polarizability:     348.629       0.025     335.002      -2.714      -0.283     127.375

 ******    1 imaginary frequencies (negative Signs) ******

                      1                      2                      3
                      A                      A                      A
 Frequencies --     -1.7089                70.5056                76.8099
 Red. masses --      3.9404                 3.0938                 2.2523
 Frc consts  --      0.0000                 0.0091                 0.0078
 IR Inten    --      1.0900                 2.3463                 8.3294

                      4                      5                      6
                      A                      A                      A
 Frequencies --    111.9498               129.7105               140.3520
 Red. masses --      3.6730                 2.2488                 1.3502
 Frc consts  --      0.0271                 0.0223                 0.0157
 IR Inten    --      3.9854                 0.2865                 2.7171

                      7                      8                      9
                      A                      A                      A
 Frequencies --    165.0349               174.8209               197.7706
 Red. masses --      2.4724                 2.4500                 1.6741
 Frc consts  --      0.0397                 0.0441                 0.0386
 IR Inten    --      0.0389                 2.9169                 3.3373

                     10                     11                     12
                      A                      A                      A
 Frequencies --    217.1954               285.2319               295.7849
 Red. masses --      2.1362                 3.5052                 4.8738
 Frc consts  --      0.0594                 0.1680                 0.2512
 IR Inten    --      2.2603                 0.1496                 0.0530

                     13                     14                     15
                      A                      A                      A
 Frequencies --    315.3364               338.5410               400.9569
 Red. masses --      5.3291                 3.9951                 4.2944
 Frc consts  --      0.3122                 0.2698                 0.4068
 IR Inten    --      2.5416                 0.5630                 1.4081

                     16                     17                     18
                      A                      A                      A
 Frequencies --    442.9969               487.0181               497.3760
 Red. masses --      4.0264                 3.7243                 4.8523
 Frc consts  --      0.4656                 0.5205                 0.7072
 IR Inten    --     13.6457                 4.5610                 2.2809

                     19                     20                     21
                      A                      A                      A
 Frequencies --    516.5862               540.9706               559.6197
 Red. masses --      4.1211                 6.3665                 4.5941
 Frc consts  --      0.6480                 1.0977                 0.8477
 IR Inten    --      4.0989                 0.1646                 4.3394

                     22                     23                     24
                      A                      A                      A
 Frequencies --    615.5903               635.7847               679.7237
 Red. masses --      4.4024                 3.9733                 3.3332
 Frc consts  --      0.9829                 0.9463                 0.9074
 IR Inten    --      3.8459                 7.0408                 1.8630

                     25                     26                     27
                      A                      A                      A
 Frequencies --    728.9490               771.4702               780.8937
 Red. masses --      4.5418                 1.3128                 1.8503
 Frc consts  --      1.4219                 0.4604                 0.6648
 IR Inten    --     21.1116                 1.9703                49.9728

                     28                     29                     30
                      A                      A                      A
 Frequencies --    798.8002               818.6699               838.6525
 Red. masses --      4.5606                 3.7459                 2.9460
 Frc consts  --      1.7145                 1.4792                 1.2208
 IR Inten    --      8.1489                 3.8372                56.7646

                     31                     32                     33
                      A                      A                      A
 Frequencies --    880.9163               897.6242               900.8585
 Red. masses --      1.3691                 1.3715                 1.2895
 Frc consts  --      0.6260                 0.6511                 0.6166
 IR Inten    --      0.0328                 4.0692                13.1880

                     34                     35                     36
                      A                      A                      A
 Frequencies --    905.2318               927.6814               949.7117
 Red. masses --      1.4506                 1.9530                 2.1280
 Frc consts  --      0.7004                 0.9903                 1.1308
 IR Inten    --      5.8683                68.1620                 6.7515

                     37                     38                     39
                      A                      A                      A
 Frequencies --    964.9597               975.0565              1053.0762
 Red. masses --      1.2707                 1.2862                 3.4606
 Frc consts  --      0.6971                 0.7205                 2.2611
 IR Inten    --      0.0150                 1.5903                15.3019

                     40                     41                     42
                      A                      A                      A
 Frequencies --   1063.9476              1105.6140              1107.2299
 Red. masses --      4.1035                 1.6331                 1.6352
 Frc consts  --      2.7368                 1.1762                 1.1812
 IR Inten    --     19.9682                 0.0572                 5.3896

                     43                     44                     45
                      A                      A                      A
 Frequencies --   1123.9371              1150.7553              1161.5733
 Red. masses --      1.8340                 1.9775                 2.0371
 Frc consts  --      1.3650                 1.5429                 1.6194
 IR Inten    --      0.0952                 1.3707                 0.7827

                     46                     47                     48
                      A                      A                      A
 Frequencies --   1162.1427              1196.4039              1202.5392
 Red. masses --      2.1550                 1.3133                 1.2234
 Frc consts  --      1.7148                 1.1076                 1.0423
 IR Inten    --     29.2749                 2.3229                 0.6608

                     49                     50                     51
                      A                      A                      A
 Frequencies --   1243.2847              1253.6453              1292.9340
 Red. masses --      1.9945                 2.7513                 2.3679
 Frc consts  --      1.8165                 2.5476                 2.3322
 IR Inten    --      0.1274                 0.0859                90.5586

                     52                     53                     54
                      A                      A                      A
 Frequencies --   1376.4102              1380.8087              1396.8297
 Red. masses --      3.8648                 2.3256                 2.8715
 Frc consts  --      4.3139                 2.6125                 3.3010
 IR Inten    --      5.4670                15.8167                13.8891

                     55                     56                     57
                      A                      A                      A
 Frequencies --   1399.2159              1414.6464              1432.2469
 Red. masses --      1.2492                 1.6372                 1.3610
 Frc consts  --      1.4409                 1.9304                 1.6450
 IR Inten    --      1.0699                20.8111                 0.0767

                     58                     59                     60
                      A                      A                      A
 Frequencies --   1440.6011              1474.9663              1491.9685
 Red. masses --      1.5774                 1.8895                 1.2847
 Frc consts  --      1.9288                 2.4219                 1.6849
 IR Inten    --      9.8178                 9.3137                 4.8702

                     61                     62                     63
                      A                      A                      A
 Frequencies --   1495.7283              1496.0717              1497.6500
 Red. masses --      1.2172                 1.0660                 1.4553
 Frc consts  --      1.6045                 1.4058                 1.9232
 IR Inten    --      1.2210                41.0638                29.4607

                     64                     65                     66
                      A                      A                      A
 Frequencies --   1501.0133              1559.5116              1614.6450
 Red. masses --      1.0475                 4.0021                 6.1106
 Frc consts  --      1.3905                 5.7348                 9.3861
 IR Inten    --      2.2872                 3.3557               127.8655

                     67                     68                     69
                      A                      A                      A
 Frequencies --   1649.0160              1660.6203              1742.6704
 Red. masses --      5.3278                 6.0738                 7.7305
 Frc consts  --      8.5358                 9.8686                13.8321
 IR Inten    --      0.4977                23.1149                70.7969

                     70                     71                     72
                      A                      A                      A
 Frequencies --   1749.6828              3020.8896              3021.8926
 Red. masses --      7.7972                 1.0822                 1.0821
 Frc consts  --     14.0639                 5.8188                 5.8221
 IR Inten    --    277.9060                21.5426                74.7157

                     73                     74                     75
                      A                      A                      A
 Frequencies --   3042.1127              3042.5536              3090.0567
 Red. masses --      1.0418                 1.0421                 1.0996
 Frc consts  --      5.6805                 5.6837                 6.1862
 IR Inten    --     13.4776                35.5387                18.1616

                     76                     77                     78
                      A                      A                      A
 Frequencies --   3090.6975              3154.1627              3154.8606
 Red. masses --      1.0995                 1.1009                 1.1009
 Frc consts  --      6.1879                 6.4531                 6.4558
 IR Inten    --     12.1177                 6.2832                21.1951

                     79                     80                     81
                      A                      A                      A
 Frequencies --   3182.5784              3185.0613              3196.7993
 Red. masses --      1.0862                 1.0858                 1.0919
 Frc consts  --      6.4823                 6.4900                 6.5743
 IR Inten    --      2.5142                 0.1073                 1.7233

                     82                     83                     84
                      A                      A                      A
 Frequencies --   3198.6784              3209.5842              3210.5309
 Red. masses --      1.0913                 1.0957                 1.0957
 Frc consts  --      6.5785                 6.6502                 6.6544
 IR Inten    --     59.1764                44.9205                 9.1521

 - Thermochemistry -
 -------------------
 Temperature   298.150 Kelvin.  Pressure   1.00000 Atm.
 Atom     1 has atomic number  6 and mass  12.00000

 Molecular mass:   210.11570 amu.
 Principal axes and moments of inertia in atomic units:
                           1         2         3
     Eigenvalues --  2667.294923570.798996121.18276
           X            1.00000  -0.00002   0.00217
           Y            0.00002   1.00000   0.00001
           Z           -0.00217  -0.00001   1.00000
 This molecule is an asymmetric top.
 Rotational symmetry number  1.
 Warning -- assumption of classical behavior for rotation
           may cause significant error
 Rotational temperatures (Kelvin)      0.03247     0.02426     0.01415
 Rotational constants (GHZ):           0.67662     0.50542     0.29484
    1 imaginary frequencies ignored.
 Zero-point vibrational energy     644350.5 (Joules/Mol)
                                  154.00346 (Kcal/Mol)
 Warning -- explicit consideration of  21 degrees of freedom as
           vibrations may cause significant error
 Vibrational temperatures:    101.44   110.51   161.07   186.62   201.94
          (Kelvin)            237.45   251.53   284.55   312.50   410.39
                              425.57   453.70   487.09   576.89   637.37
                              700.71   715.61   743.25   778.34   805.17
                              885.70   914.75   977.97  1048.80  1109.97
                             1123.53  1149.30  1177.88  1206.63  1267.44
                             1291.48  1296.13  1302.43  1334.73  1366.42
                             1388.36  1402.89  1515.14  1530.78  1590.73
                             1593.06  1617.09  1655.68  1671.24  1672.06
                             1721.36  1730.19  1788.81  1803.72  1860.24
                             1980.35  1986.68  2009.73  2013.16  2035.36
                             2060.68  2072.70  2122.15  2146.61  2152.02
                             2152.51  2154.78  2159.62  2243.79  2323.11
                             2372.57  2389.26  2507.31  2517.40  4346.39
                             4347.83  4376.92  4377.56  4445.90  4446.82
                             4538.14  4539.14  4579.02  4582.59  4599.48
                             4602.18  4617.88  4619.24

 Zero-point correction=                           0.245420 (Hartree/Particle)
 Thermal correction to Energy=                    0.259124
 Thermal correction to Enthalpy=                  0.260069
 Thermal correction to Gibbs Free Energy=         0.205352
 Sum of electronic and zero-point Energies=           -651.175522
 Sum of electronic and thermal Energies=              -651.161817
 Sum of electronic and thermal Enthalpies=            -651.160873
 Sum of electronic and thermal Free Energies=         -651.215590

                     E (Thermal)             CV                S
                      KCal/Mol        Cal/Mol-Kelvin    Cal/Mol-Kelvin
 Total                  162.603             53.678            115.160
 Electronic               0.000              0.000              0.000
 Translational            0.889              2.981             41.931
 Rotational               0.889              2.981             32.433
 Vibrational            160.826             47.716             40.796
 Vibration     1          0.598              1.968              4.139
 Vibration     2          0.599              1.965              3.971
 Vibration     3          0.607              1.940              3.235
 Vibration     4          0.612              1.924              2.950
 Vibration     5          0.615              1.913              2.799
 Vibration     6          0.623              1.885              2.491
 Vibration     7          0.627              1.873              2.383
 Vibration     8          0.637              1.843              2.154
 Vibration     9          0.646              1.815              1.982
 Vibration    10          0.683              1.701              1.502
 Vibration    11          0.690              1.682              1.441
 Vibration    12          0.703              1.644              1.334
 Vibration    13          0.719              1.598              1.219
 Vibration    14          0.767              1.468              0.959
 Vibration    15          0.803              1.376              0.817
 Vibration    16          0.843              1.279              0.691
 Vibration    17          0.853              1.256              0.665
 Vibration    18          0.872              1.213              0.618
 Vibration    19          0.896              1.159              0.563
 Vibration    20          0.915              1.119              0.525
 Vibration    21          0.975              0.999              0.424

 Optimization completed.
    -- Stationary point found.
 Normal termination of Gaussian 16 at Thu Nov 18 12:37:10 2021.
