 Gaussian 16, Revision C.01,
 Gaussian 16:  ES64L-G16RevC.01  3-Jul-2019

 ----------------------------------------------------
 # opt freq b3lyp/6-31g(d) scrf=(smd,solvent=toluene)
 ----------------------------------------------------

 --------------
 biphenMeCHNCH2
 --------------
 Symbolic Z-matrix:
 Charge =  0 Multiplicity = 1

 SCF Done:  E(RB3LYP) =  -728.811610204     A.U. after   13 cycles
 SCF Done:  E(RB3LYP) =  -728.832097338     A.U. after   12 cycles
 SCF Done:  E(RB3LYP) =  -728.837173354     A.U. after   12 cycles
 SCF Done:  E(RB3LYP) =  -728.837600820     A.U. after   11 cycles
 SCF Done:  E(RB3LYP) =  -728.837671034     A.U. after   10 cycles
 SCF Done:  E(RB3LYP) =  -728.837701408     A.U. after   10 cycles
 SCF Done:  E(RB3LYP) =  -728.837713350     A.U. after    9 cycles
 SCF Done:  E(RB3LYP) =  -728.837719835     A.U. after    9 cycles
 SCF Done:  E(RB3LYP) =  -728.837721282     A.U. after    8 cycles
 SCF Done:  E(RB3LYP) =  -728.837721462     A.U. after    7 cycles
 Optimization completed.
    -- Stationary point found.
 Normal termination of Gaussian 16 at Mon Sep 12 11:18:29 2022.

 --------------------------------------------------------------------
 #N Geom=AllCheck Guess=TCheck SCRF=Check GenChk RB3LYP/6-31G(d) Freq
 --------------------------------------------------------------------

 Structure from the checkpoint file:  "/home/rong/gdata/080322/Y8B1-2.chk"
 --------------
 biphenMeCHNCH2
 --------------
 Charge =  0 Multiplicity = 1

                         Standard orientation:
 ---------------------------------------------------------------------
 Center     Atomic      Atomic             Coordinates (Angstroms)
 Number     Number       Type             X           Y           Z
 ---------------------------------------------------------------------
      1          6           0        1.675265    0.752995    0.085505
      2          6           0        2.333182    1.995060    0.068745
      3          6           0        1.735128    3.117703   -0.498394
      4          6           0        0.461937    3.014448   -1.058610
      5          6           0       -0.205653    1.790740   -1.029474
      6          6           0        0.369720    0.647029   -0.457031
      7          1           0        3.307035    2.078754    0.542885
      8          1           0        2.260025    4.069570   -0.493809
      9          1           0       -0.015115    3.882031   -1.506390
     10          6           0       -0.369630   -0.647226   -0.456933
     11          6           0       -1.675163   -0.753013    0.085604
     12          6           0        0.205548   -1.791045   -1.029383
     13          6           0       -2.333332   -1.994952    0.068842
     14          6           0       -0.462232   -3.014637   -1.058470
     15          6           0       -1.735448   -3.117697   -0.498239
     16          1           0       -3.307231   -2.078412    0.542929
     17          1           0        0.014689   -3.882282   -1.506272
     18          1           0       -2.260509   -4.069473   -0.493709
     19          1           0       -1.195309    1.711889   -1.468025
     20          1           0        1.195191   -1.712364   -1.467989
     21          7           0       -2.250490    0.368516    0.720385
     22          6           0       -3.486546    0.637660    0.553943
     23          1           0       -4.117563    0.056143   -0.136630
     24          6           0       -4.154091    1.764714    1.276507
     25          1           0       -4.589082    2.476896    0.562148
     26          1           0       -4.985291    1.387671    1.888202
     27          1           0       -3.441467    2.286668    1.920320
     28          7           0        2.250701   -0.368414    0.720298
     29          6           0        3.486736   -0.637566    0.553808
     30          1           0        4.117725   -0.056185   -0.136935
     31          6           0        4.154346   -1.764432    1.276517
     32          1           0        4.985584   -1.387222    1.888080
     33          1           0        3.441890   -2.286375    1.920528
     34          1           0        4.589355   -2.476709    0.562264
 ---------------------------------------------------------------------

 SCF Done:  E(RB3LYP) =  -728.837721462     A.U. after    1 cycles

 The electronic state is 1-A.
 Alpha  occ. eigenvalues --  -14.32728 -14.32728 -10.23133 -10.23132 -10.21543
 Alpha  occ. eigenvalues --  -10.21543 -10.19135 -10.19106 -10.18380 -10.18380
 Alpha  occ. eigenvalues --  -10.18214 -10.18214 -10.18186 -10.18186 -10.18032
 Alpha  occ. eigenvalues --  -10.18032 -10.18015 -10.18014  -0.93039  -0.92674
 Alpha  occ. eigenvalues --   -0.84821  -0.83261  -0.76996  -0.75496  -0.74952
 Alpha  occ. eigenvalues --   -0.72176  -0.70953  -0.69942  -0.61994  -0.61505
 Alpha  occ. eigenvalues --   -0.60721  -0.57313  -0.54955  -0.54952  -0.52311
 Alpha  occ. eigenvalues --   -0.50839  -0.48109  -0.46353  -0.45847  -0.44697
 Alpha  occ. eigenvalues --   -0.43412  -0.42609  -0.42232  -0.41914  -0.40943
 Alpha  occ. eigenvalues --   -0.40693  -0.40404  -0.38647  -0.38423  -0.36981
 Alpha  occ. eigenvalues --   -0.36577  -0.35766  -0.34621  -0.34338  -0.33995
 Alpha  occ. eigenvalues --   -0.30924  -0.30784  -0.27008  -0.26881  -0.24804
 Alpha  occ. eigenvalues --   -0.22986  -0.22085  -0.21132
 Alpha virt. eigenvalues --   -0.03363  -0.01215  -0.00933   0.02024   0.03664
 Alpha virt. eigenvalues --    0.04286   0.10374   0.11399   0.12297   0.12619
 Alpha virt. eigenvalues --    0.14408   0.14686   0.15680   0.15960   0.16430

 Mulliken charges:
               1
     1  C    0.217818
     2  C   -0.175767
     3  C   -0.147897
     4  C   -0.147329
     5  C   -0.174247
     6  C    0.055774
     7  H    0.140845
     8  H    0.140926
     9  H    0.138342
    10  C    0.055811
    11  C    0.217781
    12  C   -0.174262
    13  C   -0.175758
    14  C   -0.147319
    15  C   -0.147909
    16  H    0.140853
    17  H    0.138344
    18  H    0.140927
    19  H    0.139470
    20  H    0.139469
    21  N   -0.436028
    22  C    0.093816
    23  H    0.135447
    24  C   -0.505496
    25  H    0.170436
    26  H    0.172225
    27  H    0.181660
    28  N   -0.436032
    29  C    0.093827
    30  H    0.135447
    31  C   -0.505497
    32  H    0.172225
    33  H    0.181660
    34  H    0.170436
 Sum of Mulliken charges =  -0.00000

 Dipole moment (field-independent basis, Debye):
    X=              0.0001    Y=             -0.0002    Z=             -0.9379  Tot=              0.9379
 Quadrupole moment (field-independent basis, Debye-Ang):
   XX=            -76.2350   YY=            -94.8717   ZZ=           -107.9629
   XY=             -3.0455   XZ=              0.0004   YZ=              0.0005

  Exact polarizability:     278.594     -13.388     272.298       0.001       0.001     119.739
 Approx polarizability:     353.319     -15.469     348.429       0.001       0.002     164.345

                      1                      2                      3
                      A                      A                      A
 Frequencies --     18.9583                59.5373                72.6010
 Red. masses --      4.4608                 3.7301                 4.1959
 Frc consts  --      0.0009                 0.0078                 0.0130
 IR Inten    --      0.3018                 2.6333                 0.1045

                      4                      5                      6
                      A                      A                      A
 Frequencies --     94.2240                98.4657               111.2156
 Red. masses --      2.2876                 2.9748                 3.6692
 Frc consts  --      0.0120                 0.0170                 0.0267
 IR Inten    --      8.1777                 2.0149                 0.7260

                      7                      8                      9
                      A                      A                      A
 Frequencies --    131.4148               144.9856               159.8773
 Red. masses --      1.4480                 1.7152                 3.0768
 Frc consts  --      0.0147                 0.0212                 0.0463
 IR Inten    --      4.6613                 0.0061                 1.2744

                     10                     11                     12
                      A                      A                      A
 Frequencies --    199.6704               209.3054               239.6843
 Red. masses --      1.6165                 1.8124                 4.0852
 Frc consts  --      0.0380                 0.0468                 0.1383
 IR Inten    --      0.6926                 4.4957                 1.8384

                     13                     14                     15
                      A                      A                      A
 Frequencies --    258.8624               272.0536               322.4024
 Red. masses --      4.2120                 5.4455                 4.2304
 Frc consts  --      0.1663                 0.2375                 0.2591
 IR Inten    --      0.0021                 0.1037                 0.7175

                     16                     17                     18
                      A                      A                      A
 Frequencies --    343.1339               380.1427               418.8741
 Red. masses --      3.9156                 3.9293                 3.7672
 Frc consts  --      0.2716                 0.3345                 0.3894
 IR Inten    --      0.1960                 4.9409                 1.2073

                     19                     20                     21
                      A                      A                      A
 Frequencies --    463.9672               464.4156               518.1310
 Red. masses --      4.1293                 4.5699                 3.2993
 Frc consts  --      0.5237                 0.5807                 0.5219
 IR Inten    --      0.6247                 5.9601                 5.0740

                     22                     23                     24
                      A                      A                      A
 Frequencies --    546.5401               573.2498               583.1298
 Red. masses --      3.6676                 4.2993                 3.9044
 Frc consts  --      0.6455                 0.8324                 0.7822
 IR Inten    --      3.3913                 7.3509                 0.0775

                     25                     26                     27
                      A                      A                      A
 Frequencies --    627.2409               628.0478               636.3299
 Red. masses --      5.1800                 4.9871                 6.3157
 Frc consts  --      1.2007                 1.1590                 1.5067
 IR Inten    --     14.3667                 0.7040                 0.9390

                     28                     29                     30
                      A                      A                      A
 Frequencies --    727.1058               753.5803               767.8694
 Red. masses --      4.4971                 2.1274                 1.9948
 Frc consts  --      1.4008                 0.7118                 0.6930
 IR Inten    --      0.1750                25.9408                41.5728

                     31                     32                     33
                      A                      A                      A
 Frequencies --    776.1404               779.1439               822.8260
 Red. masses --      1.8761                 1.8755                 3.4065
 Frc consts  --      0.6659                 0.6708                 1.3589
 IR Inten    --     55.2831                12.5441                19.3880

                     34                     35                     36
                      A                      A                      A
 Frequencies --    835.9126               875.5190               877.8316
 Red. masses --      3.4801                 1.3777                 1.3969
 Frc consts  --      1.4327                 0.6222                 0.6342
 IR Inten    --     14.1920                 1.6949                 4.1002

                     37                     38                     39
                      A                      A                      A
 Frequencies --    902.6319               905.2060               943.8807
 Red. masses --      1.3227                 1.3720                 1.3947
 Frc consts  --      0.6349                 0.6624                 0.7321
 IR Inten    --      1.6190                10.6094                 0.9939

                     40                     41                     42
                      A                      A                      A
 Frequencies --    947.6155               962.4449               965.4334
 Red. masses --      1.3866                 2.1219                 2.1163
 Frc consts  --      0.7336                 1.1580                 1.1622
 IR Inten    --      5.3373                30.2588                 2.6715

                     43                     44                     45
                      A                      A                      A
 Frequencies --    979.1181               979.4743              1021.6629
 Red. masses --      1.2634                 1.2549                 7.3053
 Frc consts  --      0.7136                 0.7093                 4.4927
 IR Inten    --      1.0381                 0.0005                12.9813

                     46                     47                     48
                      A                      A                      A
 Frequencies --   1080.5163              1080.7346              1105.6701
 Red. masses --      2.1833                 2.1438                 1.6331
 Frc consts  --      1.5019                 1.4752                 1.1763
 IR Inten    --      0.9072                 6.0891                 2.7560

                     49                     50                     51
                      A                      A                      A
 Frequencies --   1105.7671              1139.2617              1143.3391
 Red. masses --      1.6324                 1.9347                 1.6507
 Frc consts  --      1.1760                 1.4795                 1.2713
 IR Inten    --      0.0425                 7.0940                 7.0683

                     52                     53                     54
                      A                      A                      A
 Frequencies --   1161.6547              1161.7444              1190.5707
 Red. masses --      2.1831                 2.1562                 1.0847
 Frc consts  --      1.7358                 1.7146                 0.9058
 IR Inten    --      7.9137                 9.6734                 1.0913

                     55                     56                     57
                      A                      A                      A
 Frequencies --   1191.3500              1236.1155              1241.8689
 Red. masses --      1.0818                 2.8049                 2.7735
 Frc consts  --      0.9047                 2.5251                 2.5202
 IR Inten    --      0.1968                 9.7783                20.9952

                     58                     59                     60
                      A                      A                      A
 Frequencies --   1274.9826              1293.4512              1325.7215
 Red. masses --      2.5491                 1.6115                 6.7441
 Frc consts  --      2.4415                 1.5885                 6.9836
 IR Inten    --      7.7100                16.8557                 4.9068

                     61                     62                     63
                      A                      A                      A
 Frequencies --   1333.6022              1340.2407              1401.2222
 Red. masses --      1.7936                 6.3932                 1.2654
 Frc consts  --      1.8794                 6.7661                 1.4638
 IR Inten    --      0.9169                 0.7020                 3.4307

                     64                     65                     66
                      A                      A                      A
 Frequencies --   1401.3695              1433.9267              1434.3857
 Red. masses --      1.2693                 1.3660                 1.3651
 Frc consts  --      1.4687                 1.6548                 1.6548
 IR Inten    --      7.3450                17.1212                 9.1677

                     67                     68                     69
                      A                      A                      A
 Frequencies --   1474.0512              1494.0261              1494.9458
 Red. masses --      2.0540                 1.4898                 1.0676
 Frc consts  --      2.6295                 1.9592                 1.4057
 IR Inten    --     18.6207                 6.3374                46.5462

                     70                     71                     72
                      A                      A                      A
 Frequencies --   1496.0794              1498.4051              1498.4902
 Red. masses --      1.4388                 1.0472                 1.0601
 Frc consts  --      1.8973                 1.3853                 1.4025
 IR Inten    --      0.0253                10.1410                 9.7091

                     73                     74                     75
                      A                      A                      A
 Frequencies --   1516.5171              1539.5054              1617.9865
 Red. masses --      2.4276                 2.8519                 5.5587
 Frc consts  --      3.2894                 3.9824                 8.5738
 IR Inten    --     42.5066                 2.8412                11.1580

                     76                     77                     78
                      A                      A                      A
 Frequencies --   1626.5017              1646.4478              1650.6124
 Red. masses --      6.1676                 5.5324                 5.7837
 Frc consts  --      9.6133                 8.8360                 9.2843
 IR Inten    --      0.6203                19.2347                 1.3141

                     79                     80                     81
                      A                      A                      A
 Frequencies --   1739.0611              1739.8837              3022.3969
 Red. masses --      7.4204                 7.4327                 1.0815
 Frc consts  --     13.2222                13.2567                 5.8205
 IR Inten    --    303.1139                12.2993                55.5886

                     82                     83                     84
                      A                      A                      A
 Frequencies --   3022.5926              3041.7661              3041.8579
 Red. masses --      1.0814                 1.0425                 1.0425
 Frc consts  --      5.8208                 5.6827                 5.6836
 IR Inten    --     47.0409                46.7775                 4.3018

                     85                     86                     87
                      A                      A                      A
 Frequencies --   3089.4415              3089.5088              3154.1599
 Red. masses --      1.0995                 1.0995                 1.1010
 Frc consts  --      6.1829                 6.1832                 6.4535
 IR Inten    --     14.7889                14.7356                14.7119

                     88                     89                     90
                      A                      A                      A
 Frequencies --   3154.1833              3184.8706              3184.8803
 Red. masses --      1.1010                 1.0854                 1.0854
 Frc consts  --      6.4536                 6.4866                 6.4865
 IR Inten    --     12.4867                 1.6520                 0.1039

                     91                     92                     93
                      A                      A                      A
 Frequencies --   3196.9454              3196.9614              3206.3827
 Red. masses --      1.0894                 1.0894                 1.0939
 Frc consts  --      6.5601                 6.5604                 6.6262
 IR Inten    --      5.3267                26.2990                70.5434

                     94                     95                     96
                      A                      A                      A
 Frequencies --   3206.5661              3215.9685              3216.3424
 Red. masses --      1.0939                 1.0955                 1.0958
 Frc consts  --      6.6269                 6.6755                 6.6788
 IR Inten    --      3.4681                34.8372                 8.4582

 - Thermochemistry -
 -------------------
 Temperature   298.150 Kelvin.  Pressure   1.00000 Atm.
 Atom     1 has atomic number  6 and mass  12.00000

 Molecular mass:   236.13135 amu.
 Principal axes and moments of inertia in atomic units:
                           1         2         3
     Eigenvalues --  3533.809025229.675227693.18029
           X            0.99865  -0.05194   0.00000
           Y            0.05194   0.99865   0.00000
           Z           -0.00000  -0.00000   1.00000
 This molecule is an asymmetric top.
 Rotational symmetry number  1.
 Warning -- assumption of classical behavior for rotation
           may cause significant error
 Rotational temperatures (Kelvin)      0.02451     0.01656     0.01126
 Rotational constants (GHZ):           0.51071     0.34510     0.23459
 Zero-point vibrational energy     734116.5 (Joules/Mol)
                                  175.45805 (Kcal/Mol)
 Warning -- explicit consideration of  24 degrees of freedom as
           vibrations may cause significant error
 Vibrational temperatures:     27.28    85.66   104.46   135.57   141.67
          (Kelvin)            160.01   189.08   208.60   230.03   287.28
                              301.14   344.85   372.45   391.42   463.87
                              493.69   546.94   602.67   667.55   668.19
                              745.47   786.35   824.78   838.99   902.46
                              903.62   915.54  1046.14  1084.23  1104.79
                             1116.69  1121.01  1183.86  1202.69  1259.68
                             1263.00  1298.69  1302.39  1358.03  1363.41
                             1384.74  1389.04  1408.73  1409.25  1469.95
                             1554.62  1554.94  1590.81  1590.95  1639.14
                             1645.01  1671.36  1671.49  1712.97  1714.09
                             1778.49  1786.77  1834.42  1860.99  1907.42
                             1918.76  1928.31  2016.05  2016.26  2063.10
                             2063.76  2120.83  2149.57  2150.89  2152.52
                             2155.87  2155.99  2181.93  2215.00  2327.92
                             2340.17  2368.87  2374.86  2502.12  2503.30
                             4348.56  4348.84  4376.42  4376.56  4445.02
                             4445.11  4538.13  4538.17  4582.32  4582.33
                             4599.69  4599.71  4613.27  4613.53  4627.06
                             4627.60

 Zero-point correction=                           0.279610 (Hartree/Particle)
 Thermal correction to Energy=                    0.296194
 Thermal correction to Enthalpy=                  0.297138
 Thermal correction to Gibbs Free Energy=         0.234528
 Sum of electronic and zero-point Energies=           -728.558111
 Sum of electronic and thermal Energies=              -728.541527
 Sum of electronic and thermal Enthalpies=            -728.540583
 Sum of electronic and thermal Free Energies=         -728.603194

                     E (Thermal)             CV                S
                      KCal/Mol        Cal/Mol-Kelvin    Cal/Mol-Kelvin
 Total                  185.865             63.175            131.775
 Electronic               0.000              0.000              0.000
 Translational            0.889              2.981             42.279
 Rotational               0.889              2.981             33.319
 Vibrational            184.087             57.213             56.177
 Vibration     1          0.593              1.986              6.740
 Vibration     2          0.597              1.974              4.472
 Vibration     3          0.599              1.967              4.082
 Vibration     4          0.603              1.953              3.570
 Vibration     5          0.604              1.950              3.484
 Vibration     6          0.607              1.940              3.248
 Vibration     7          0.612              1.922              2.925
 Vibration     8          0.616              1.908              2.737
 Vibration     9          0.622              1.891              2.551
 Vibration    10          0.638              1.840              2.136
 Vibration    11          0.642              1.827              2.050
 Vibration    12          0.657              1.780              1.805
 Vibration    13          0.668              1.748              1.669
 Vibration    14          0.675              1.725              1.583
 Vibration    15          0.707              1.631              1.298
 Vibration    16          0.722              1.589              1.198
 Vibration    17          0.750              1.513              1.039
 Vibration    18          0.782              1.429              0.896
 Vibration    19          0.822              1.330              0.755
 Vibration    20          0.822              1.329              0.753
 Vibration    21          0.873              1.210              0.614
 Vibration    22          0.902              1.147              0.551
 Vibration    23          0.930              1.089              0.498
 Vibration    24          0.940              1.068              0.480

 Optimization completed.
    -- Stationary point found.
 Normal termination of Gaussian 16 at Mon Sep 12 11:22:28 2022.
