 Gaussian 16, Revision C.01,
 Gaussian 16:  ES64L-G16RevC.01  3-Jul-2019

 ----------------------------------------------------
 # opt freq b3lyp/6-31g(d) scrf=(smd,solvent=toluene)
 ----------------------------------------------------

 -----------------
 biphenylNMeCH2CH3
 -----------------
 Symbolic Z-matrix:
 Charge =  0 Multiplicity = 1

 SCF Done:  E(RB3LYP) =  -809.757793191     A.U. after   13 cycles
 SCF Done:  E(RB3LYP) =  -809.824460497     A.U. after   12 cycles
 SCF Done:  E(RB3LYP) =  -809.810608005     A.U. after   12 cycles
 SCF Done:  E(RB3LYP) =  -809.846308543     A.U. after   12 cycles
 SCF Done:  E(RB3LYP) =  -809.854886041     A.U. after   11 cycles
 SCF Done:  E(RB3LYP) =  -809.860140693     A.U. after   11 cycles
 SCF Done:  E(RB3LYP) =  -809.863048273     A.U. after   11 cycles
 SCF Done:  E(RB3LYP) =  -809.863999776     A.U. after   11 cycles
 SCF Done:  E(RB3LYP) =  -809.865163106     A.U. after   10 cycles
 SCF Done:  E(RB3LYP) =  -809.866351500     A.U. after   11 cycles
 SCF Done:  E(RB3LYP) =  -809.867610924     A.U. after    8 cycles
 SCF Done:  E(RB3LYP) =  -809.867614708     A.U. after    9 cycles
 SCF Done:  E(RB3LYP) =  -809.867613800     A.U. after    7 cycles
 SCF Done:  E(RB3LYP) =  -809.867612056     A.U. after    8 cycles
 SCF Done:  E(RB3LYP) =  -809.867614634     A.U. after    8 cycles
 SCF Done:  E(RB3LYP) =  -809.867613030     A.U. after    8 cycles
 SCF Done:  E(RB3LYP) =  -809.867613014     A.U. after    6 cycles
 SCF Done:  E(RB3LYP) =  -809.867614576     A.U. after    8 cycles
 SCF Done:  E(RB3LYP) =  -809.867612948     A.U. after    8 cycles
 Optimization completed.
    -- Stationary point found.
 Normal termination of Gaussian 16 at Sun Oct 24 02:36:26 2021.

 --------------------------------------------------------------------
 #N Geom=AllCheck Guess=TCheck SCRF=Check GenChk RB3LYP/6-31G(d) Freq
 --------------------------------------------------------------------

 Structure from the checkpoint file:  "biphenylNMeCH2CH3.chk"
 -----------------
 biphenylNMeCH2CH3
 -----------------
 Charge =  0 Multiplicity = 1

                         Standard orientation:
 ---------------------------------------------------------------------
 Center     Atomic      Atomic             Coordinates (Angstroms)
 Number     Number       Type             X           Y           Z
 ---------------------------------------------------------------------
      1          6           0       -0.420885    1.046601   -0.556830
      2          6           0       -1.580734    0.281912   -0.232654
      3          6           0       -2.738385    0.982851    0.164485
      4          6           0       -2.785576    2.374941    0.198286
      5          6           0       -1.676316    3.121889   -0.192308
      6          6           0       -0.513892    2.447147   -0.564810
      7          6           0        0.907458    0.439549   -0.886713
      8          6           0        1.661657   -0.345320    0.032490
      9          6           0        2.859652   -0.930111   -0.420609
     10          6           0        3.336372   -0.725391   -1.714919
     11          6           0        2.633514    0.095081   -2.593803
     12          6           0        1.433541    0.665980   -2.167884
     13          1           0       -3.631039    0.425816    0.426081
     14          1           0       -3.703609    2.870022    0.505878
     15          1           0       -1.704807    4.207990   -0.191656
     16          1           0        0.375101    3.015833   -0.827155
     17          1           0        3.443937   -1.537622    0.262421
     18          1           0        4.268743   -1.192884   -2.022321
     19          1           0        2.999125    0.276579   -3.600795
     20          1           0        0.854519    1.274613   -2.858288
     21          7           0        1.207761   -0.558094    1.356294
     22          7           0       -1.566121   -1.124509   -0.265588
     23          6           0        1.663124   -1.760970    2.034906
     24          1           0        2.713417   -1.737567    2.373316
     25          1           0        1.037268   -1.917709    2.921226
     26          1           0        1.539992   -2.626263    1.376302
     27          6           0        1.092974    0.612816    2.239522
     28          1           0        0.453477    0.320859    3.082574
     29          1           0        0.561743    1.400430    1.702952
     30          6           0        2.423792    1.166397    2.768335
     31          1           0        2.238518    2.044793    3.399028
     32          1           0        2.966101    0.432828    3.375989
     33          1           0        3.078024    1.476165    1.945131
     34          6           0       -2.441661   -1.886634    0.621167
     35          1           0       -1.886577   -2.786269    0.926900
     36          1           0       -2.595405   -1.295426    1.528936
     37          6           0       -3.796799   -2.335897    0.049254
     38          1           0       -4.358991   -2.879275    0.818809
     39          1           0       -4.410426   -1.492273   -0.284893
     40          1           0       -3.670931   -3.013174   -0.802654
     41          6           0       -1.192067   -1.822771   -1.487398
     42          1           0       -0.806491   -2.819626   -1.237506
     43          1           0       -2.040663   -1.951673   -2.180164
     44          1           0       -0.407110   -1.286358   -2.018152
 ---------------------------------------------------------------------

 SCF Done:  E(RB3LYP) =  -809.867612948     A.U. after    1 cycles

 The electronic state is 1-A.
 Alpha  occ. eigenvalues --  -14.32651 -14.32602 -10.21648 -10.21465 -10.20440
 Alpha  occ. eigenvalues --  -10.19908 -10.19717 -10.19373 -10.18648 -10.18487
 Alpha  occ. eigenvalues --  -10.18002 -10.17873 -10.17865 -10.17761 -10.17517
 Alpha  occ. eigenvalues --  -10.17514 -10.17336 -10.17274 -10.16866 -10.16466
 Alpha  occ. eigenvalues --   -0.92671  -0.91998  -0.84270  -0.82704  -0.76492
 Alpha  occ. eigenvalues --   -0.74584  -0.74370  -0.72760  -0.72183  -0.70950
 Alpha  occ. eigenvalues --   -0.66864  -0.66288  -0.62166  -0.61210  -0.60217
 Alpha  occ. eigenvalues --   -0.57364  -0.56606  -0.54936  -0.51355  -0.49696
 Alpha  occ. eigenvalues --   -0.47391  -0.46731  -0.46191  -0.45699  -0.45017
 Alpha  occ. eigenvalues --   -0.44070  -0.42953  -0.42660  -0.42076  -0.41520
 Alpha  occ. eigenvalues --   -0.40699  -0.39974  -0.39443  -0.38581  -0.38291
 Alpha  occ. eigenvalues --   -0.37466  -0.37072  -0.36672  -0.36045  -0.35673
 Alpha  occ. eigenvalues --   -0.35027  -0.34306  -0.34219  -0.33806  -0.33083
 Alpha  occ. eigenvalues --   -0.32746  -0.32204  -0.26373  -0.25747  -0.24530
 Alpha  occ. eigenvalues --   -0.22770  -0.18567  -0.18027
 Alpha virt. eigenvalues --   -0.00711   0.00906   0.01528   0.02585   0.08782
 Alpha virt. eigenvalues --    0.09885   0.11480   0.11619   0.13030   0.13515
 Alpha virt. eigenvalues --    0.14112   0.14935   0.15251   0.15771   0.16345

 Mulliken charges:
               1
     1  C    0.018849
     2  C    0.304437
     3  C   -0.200040
     4  C   -0.150704
     5  C   -0.152356
     6  C   -0.188805
     7  C    0.012353
     8  C    0.295494
     9  C   -0.201536
    10  C   -0.150720
    11  C   -0.149171
    12  C   -0.188819
    13  H    0.139156
    14  H    0.135055
    15  H    0.132800
    16  H    0.138304
    17  H    0.137528
    18  H    0.136247
    19  H    0.134583
    20  H    0.139645
    21  N   -0.459396
    22  N   -0.465560
    23  C   -0.318322
    24  H    0.137564
    25  H    0.155148
    26  H    0.163458
    27  C   -0.149786
    28  H    0.140725
    29  H    0.168958
    30  C   -0.460334
    31  H    0.146737
    32  H    0.147747
    33  H    0.155878
    34  C   -0.137008
    35  H    0.143004
    36  H    0.154470
    37  C   -0.465926
    38  H    0.147030
    39  H    0.158254
    40  H    0.154363
    41  C   -0.325845
    42  H    0.148775
    43  H    0.138651
    44  H    0.179115
 Sum of Mulliken charges =  -0.00000

 Dipole moment (field-independent basis, Debye):
    X=             -0.2223    Y=             -1.3314    Z=              0.9911  Tot=              1.6747
 Quadrupole moment (field-independent basis, Debye-Ang):
   XX=           -115.1894   YY=           -115.0776   ZZ=           -116.4790
   XY=             -0.4205   XZ=             -1.5301   YZ=             -1.3424

  Exact polarizability:     259.849     -26.726     244.149     -34.376      -8.910     214.754
 Approx polarizability:     323.749     -39.427     322.126     -51.324     -20.635     280.455

                      1                      2                      3
                      A                      A                      A
 Frequencies --     30.2771                34.4038                47.8084
 Red. masses --      3.5012                 3.3958                 3.1214
 Frc consts  --      0.0019                 0.0024                 0.0042
 IR Inten    --      0.8300                 0.1674                 1.3205

                      4                      5                      6
                      A                      A                      A
 Frequencies --     64.7856                70.3431                73.4330
 Red. masses --      2.6541                 3.7906                 3.3412
 Frc consts  --      0.0066                 0.0111                 0.0106
 IR Inten    --      0.5057                 0.2336                 1.9571

                      7                      8                      9
                      A                      A                      A
 Frequencies --     98.8559               130.2957               140.4631
 Red. masses --      2.7894                 2.0956                 2.6639
 Frc consts  --      0.0161                 0.0210                 0.0310
 IR Inten    --      1.4156                 0.5759                 0.4257

                     10                     11                     12
                      A                      A                      A
 Frequencies --    142.3638               182.7220               190.9978
 Red. masses --      2.0276                 1.1421                 2.3682
 Frc consts  --      0.0242                 0.0225                 0.0509
 IR Inten    --      0.9766                 2.2763                 1.5685

                     13                     14                     15
                      A                      A                      A
 Frequencies --    208.9774               239.3500               246.9553
 Red. masses --      1.9132                 2.6219                 1.8002
 Frc consts  --      0.0492                 0.0885                 0.0647
 IR Inten    --      2.7059                 1.2850                 1.5135

                     16                     17                     18
                      A                      A                      A
 Frequencies --    278.0644               284.3326               286.4872
 Red. masses --      2.0548                 1.3250                 2.9981
 Frc consts  --      0.0936                 0.0631                 0.1450
 IR Inten    --      1.1687                 0.1129                 0.2814

                     19                     20                     21
                      A                      A                      A
 Frequencies --    314.6299               348.8414               364.3305
 Red. masses --      2.6195                 3.4612                 2.7468
 Frc consts  --      0.1528                 0.2482                 0.2148
 IR Inten    --      1.2864                 0.7753                 0.2587

                     22                     23                     24
                      A                      A                      A
 Frequencies --    383.8649               395.1685               429.3380
 Red. masses --      2.6926                 3.4239                 3.2844
 Frc consts  --      0.2338                 0.3150                 0.3567
 IR Inten    --      0.9883                 4.1075                 5.1849

                     25                     26                     27
                      A                      A                      A
 Frequencies --    468.7226               511.0760               528.6895
 Red. masses --      3.6543                 3.6374                 3.1953
 Frc consts  --      0.4730                 0.5598                 0.5262
 IR Inten    --     16.9247                 6.6855                 1.4083

                     28                     29                     30
                      A                      A                      A
 Frequencies --    538.8321               559.3180               568.1392
 Red. masses --      3.4190                 3.7577                 3.3055
 Frc consts  --      0.5849                 0.6926                 0.6286
 IR Inten    --      5.2653                 5.1131                 7.9191

                     31                     32                     33
                      A                      A                      A
 Frequencies --    585.2265               589.5030               631.4863
 Red. masses --      4.0892                 3.8725                 6.6561
 Frc consts  --      0.8252                 0.7929                 1.5639
 IR Inten    --      3.3640                 1.9698                 9.2195

                     34                     35                     36
                      A                      A                      A
 Frequencies --    693.8540               734.4395               755.6054
 Red. masses --      4.9605                 3.7912                 2.9824
 Frc consts  --      1.4071                 1.2049                 1.0032
 IR Inten    --      1.7884                 7.1916                11.7985

                     37                     38                     39
                      A                      A                      A
 Frequencies --    770.6025               773.3048               777.1752
 Red. masses --      1.7123                 1.7708                 1.7246
 Frc consts  --      0.5991                 0.6239                 0.6137
 IR Inten    --     35.6061                38.4408                14.7832

                     40                     41                     42
                      A                      A                      A
 Frequencies --    790.5196               801.8984               804.2048
 Red. masses --      3.2467                 1.2390                 1.2974
 Frc consts  --      1.1954                 0.4694                 0.4944
 IR Inten    --      3.4969                 7.1060                 6.6724

                     43                     44                     45
                      A                      A                      A
 Frequencies --    871.6268               879.6516               900.5653
 Red. masses --      1.4376                 1.5040                 2.4875
 Frc consts  --      0.6435                 0.6857                 1.1886
 IR Inten    --      2.0241                 0.2009                 9.1980

                     46                     47                     48
                      A                      A                      A
 Frequencies --    906.3411               942.7882               947.3799
 Red. masses --      2.4918                 1.3507                 1.3606
 Frc consts  --      1.2060                 0.7074                 0.7195
 IR Inten    --      6.6422                 2.3701                 3.5153

                     49                     50                     51
                      A                      A                      A
 Frequencies --    971.5609               974.8165              1002.2741
 Red. masses --      1.2410                 1.2455                 3.0777
 Frc consts  --      0.6902                 0.6973                 1.8216
 IR Inten    --      0.0443                 0.2280                43.8512

                     52                     53                     54
                      A                      A                      A
 Frequencies --   1008.1698              1019.2776              1080.7964
 Red. masses --      3.0396                 6.9681                 2.1751
 Frc consts  --      1.8203                 4.2653                 1.4970
 IR Inten    --     32.7635                20.0857                 5.0361

                     55                     56                     57
                      A                      A                      A
 Frequencies --   1082.1642              1084.7572              1091.3331
 Red. masses --      2.1152                 2.0265                 1.9641
 Frc consts  --      1.4594                 1.4049                 1.3782
 IR Inten    --     25.8992                12.7225                24.1978

                     58                     59                     60
                      A                      A                      A
 Frequencies --   1109.5750              1118.3401              1121.7433
 Red. masses --      1.6472                 1.7909                 1.7671
 Frc consts  --      1.1948                 1.3196                 1.3101
 IR Inten    --     34.7495                20.6953                 3.6233

                     61                     62                     63
                      A                      A                      A
 Frequencies --   1141.8778              1152.3799              1159.6326
 Red. masses --      1.6385                 1.4059                 1.3545
 Frc consts  --      1.2587                 1.1000                 1.0732
 IR Inten    --     59.6480                40.2687                12.4029

                     64                     65                     66
                      A                      A                      A
 Frequencies --   1186.0706              1189.0542              1192.5465
 Red. masses --      1.8220                 1.7002                 1.1780
 Frc consts  --      1.5102                 1.4163                 0.9870
 IR Inten    --     24.2174                22.1823                 3.9445

                     67                     68                     69
                      A                      A                      A
 Frequencies --   1193.2093              1231.5348              1234.2336
 Red. masses --      1.1108                 2.4901                 2.3554
 Frc consts  --      0.9318                 2.2252                 2.1140
 IR Inten    --      1.2241                38.5564                39.6142

                     70                     71                     72
                      A                      A                      A
 Frequencies --   1274.3709              1297.5378              1301.5043
 Red. masses --      2.5687                 2.0537                 2.1229
 Frc consts  --      2.4579                 2.0372                 2.1187
 IR Inten    --      7.9838                14.8476                27.0326

                     73                     74                     75
                      A                      A                      A
 Frequencies --   1310.7181              1324.0275              1330.2841
 Red. masses --      1.6042                 1.6870                 6.1254
 Frc consts  --      1.6237                 1.7424                 6.3867
 IR Inten    --     58.1082                47.3471                14.6682

                     76                     77                     78
                      A                      A                      A
 Frequencies --   1339.4955              1398.8773              1404.5498
 Red. masses --      3.2702                 1.5183                 1.3304
 Frc consts  --      3.4570                 1.7505                 1.5463
 IR Inten    --      6.1935                22.0013                23.9990

                     79                     80                     81
                      A                      A                      A
 Frequencies --   1405.4541              1417.3546              1431.9933
 Red. masses --      1.2581                 1.7692                 1.2560
 Frc consts  --      1.4642                 2.0940                 1.5175
 IR Inten    --     32.5710                47.0390                13.7570

                     82                     83                     84
                      A                      A                      A
 Frequencies --   1437.2798              1475.5442              1478.9310
 Red. masses --      1.2774                 1.6042                 1.4355
 Frc consts  --      1.5548                 2.0579                 1.8499
 IR Inten    --     34.7022                71.5883                35.7729

                     85                     86                     87
                      A                      A                      A
 Frequencies --   1487.4503              1491.7292              1508.0357
 Red. masses --      1.5476                 1.4699                 1.0964
 Frc consts  --      2.0174                 1.9272                 1.4691
 IR Inten    --      7.2022                 7.2100                16.2394

                     88                     89                     90
                      A                      A                      A
 Frequencies --   1508.7259              1512.6888              1514.9454
 Red. masses --      1.0877                 1.0597                 1.0596
 Frc consts  --      1.4588                 1.4287                 1.4328
 IR Inten    --      7.9172                10.3794                 8.1785

                     91                     92                     93
                      A                      A                      A
 Frequencies --   1516.5381              1520.1548              1526.5385
 Red. masses --      1.1530                 1.0484                 1.5382
 Frc consts  --      1.5623                 1.4275                 2.1119
 IR Inten    --     16.2715                 0.7697                72.9967

                     94                     95                     96
                      A                      A                      A
 Frequencies --   1531.5275              1536.3235              1540.7437
 Red. masses --      1.2523                 1.2200                 1.4965
 Frc consts  --      1.7307                 1.6967                 2.0931
 IR Inten    --     17.4775                14.7216                24.5486

                     97                     98                     99
                      A                      A                      A
 Frequencies --   1547.2467              1552.5215              1615.3904
 Red. masses --      1.0767                 1.3754                 5.3573
 Frc consts  --      1.5186                 1.9533                 8.2366
 IR Inten    --     17.7686                67.2026                 7.0797

                    100                    101                    102
                      A                      A                      A
 Frequencies --   1622.0755              1646.8883              1648.5572
 Red. masses --      5.7154                 5.4483                 5.3648
 Frc consts  --      8.8600                 8.7064                 8.5904
 IR Inten    --      6.8522                30.2524                49.8233

                    103                    104                    105
                      A                      A                      A
 Frequencies --   2975.6145              2986.0626              3014.4061
 Red. masses --      1.0586                 1.0579                 1.0723
 Frc consts  --      5.5223                 5.5577                 5.7409
 IR Inten    --    116.8718               123.1805                64.9002

                    106                    107                    108
                      A                      A                      A
 Frequencies --   3047.8577              3050.9667              3052.7910
 Red. masses --      1.0362                 1.0715                 1.0367
 Frc consts  --      5.6715                 5.8764                 5.6926
 IR Inten    --     29.7476                47.2291                32.0887

                    109                    110                    111
                      A                      A                      A
 Frequencies --   3067.3867              3075.2086              3100.6113
 Red. masses --      1.0857                 1.0756                 1.0937
 Frc consts  --      6.0185                 5.9930                 6.1948
 IR Inten    --     46.6147                51.6777                 3.5850

                    112                    113                    114
                      A                      A                      A
 Frequencies --   3109.7424              3117.2925              3117.4226
 Red. masses --      1.1016                 1.1002                 1.0999
 Frc consts  --      6.2767                 6.2992                 6.2978
 IR Inten    --     30.3065                 1.5554                86.6794

                    115                    116                    117
                      A                      A                      A
 Frequencies --   3125.6727              3128.2943              3148.4928
 Red. masses --      1.1024                 1.1028                 1.0949
 Frc consts  --      6.3458                 6.3585                 6.3947
 IR Inten    --     28.6006                57.8029                20.0691

                    118                    119                    120
                      A                      A                      A
 Frequencies --   3179.3740              3180.3895              3183.6388
 Red. masses --      1.0855                 1.0853                 1.0929
 Frc consts  --      6.4651                 6.4678                 6.5265
 IR Inten    --      1.7540                 0.6658                 5.1606

                    121                    122                    123
                      A                      A                      A
 Frequencies --   3186.2344              3187.7435              3205.1484
 Red. masses --      1.0901                 1.0901                 1.0949
 Frc consts  --      6.5204                 6.5264                 6.6272
 IR Inten    --     38.8986                 6.0527                36.0109

                    124                    125                    126
                      A                      A                      A
 Frequencies --   3206.0754              3217.0217              3226.6130
 Red. masses --      1.0957                 1.0930                 1.0912
 Frc consts  --      6.6357                 6.6647                 6.6933
 IR Inten    --     41.2809                21.0915                18.7372

 - Thermochemistry -
 -------------------
 Temperature   298.150 Kelvin.  Pressure   1.00000 Atm.
 Atom     1 has atomic number  6 and mass  12.00000

 Molecular mass:   268.19395 amu.
 Principal axes and moments of inertia in atomic units:
                           1         2         3
     Eigenvalues --  4255.072766402.139306729.79738
           X            0.99928   0.03143   0.02147
           Y           -0.03221   0.99880   0.03679
           Z           -0.02029  -0.03745   0.99909
 This molecule is an asymmetric top.
 Rotational symmetry number  1.
 Warning -- assumption of classical behavior for rotation
           may cause significant error
 Rotational temperatures (Kelvin)      0.02036     0.01353     0.01287
 Rotational constants (GHZ):           0.42414     0.28190     0.26817
 Zero-point vibrational energy    1010901.0 (Joules/Mol)
                                  241.61114 (Kcal/Mol)
 Warning -- explicit consideration of  32 degrees of freedom as
           vibrations may cause significant error
 Vibrational temperatures:     43.56    49.50    68.79    93.21   101.21
          (Kelvin)            105.65   142.23   187.47   202.10   204.83
                              262.90   274.80   300.67   344.37   355.31
                              400.07   409.09   412.19   452.68   501.91
                              524.19   552.30   568.56   617.72   674.39
                              735.32   760.67   775.26   804.73   817.43
                              842.01   848.16   908.57   998.30  1056.69
                             1087.15  1108.73  1112.61  1118.18  1137.38
                             1153.75  1157.07  1254.08  1265.62  1295.71
                             1304.02  1356.46  1363.07  1397.86  1402.54
                             1442.05  1450.53  1466.51  1555.03  1556.99
                             1560.72  1570.18  1596.43  1609.04  1613.94
                             1642.91  1658.02  1668.45  1706.49  1710.78
                             1715.81  1716.76  1771.90  1775.79  1833.54
                             1866.87  1872.57  1885.83  1904.98  1913.98
                             1927.24  2012.67  2020.83  2022.13  2039.26
                             2060.32  2067.93  2122.98  2127.85  2140.11
                             2146.27  2169.73  2170.72  2176.42  2179.67
                             2181.96  2187.16  2196.35  2203.53  2210.43
                             2216.79  2226.14  2233.73  2324.19  2333.80
                             2369.50  2371.91  4281.25  4296.28  4337.06
                             4385.19  4389.66  4392.29  4413.29  4424.54
                             4461.09  4474.23  4485.09  4485.28  4497.15
                             4500.92  4529.98  4574.41  4575.87  4580.55
                             4584.28  4586.45  4611.49  4612.83  4628.58
                             4642.38

 Zero-point correction=                           0.385032 (Hartree/Particle)
 Thermal correction to Energy=                    0.405174
 Thermal correction to Enthalpy=                  0.406118
 Thermal correction to Gibbs Free Energy=         0.335882
 Sum of electronic and zero-point Energies=           -809.482581
 Sum of electronic and thermal Energies=              -809.462439
 Sum of electronic and thermal Enthalpies=            -809.461495
 Sum of electronic and thermal Free Energies=         -809.531731

                     E (Thermal)             CV                S
                      KCal/Mol        Cal/Mol-Kelvin    Cal/Mol-Kelvin
 Total                  254.251             77.140            147.825
 Electronic               0.000              0.000              0.000
 Translational            0.889              2.981             42.659
 Rotational               0.889              2.981             33.572
 Vibrational            252.473             71.178             71.595
 Vibration     1          0.594              1.984              5.811
 Vibration     2          0.594              1.983              5.558
 Vibration     3          0.595              1.978              4.906
 Vibration     4          0.597              1.971              4.306
 Vibration     5          0.598              1.968              4.144
 Vibration     6          0.599              1.967              4.059
 Vibration     7          0.604              1.950              3.477
 Vibration     8          0.612              1.923              2.942
 Vibration     9          0.615              1.913              2.798
 Vibration    10          0.616              1.911              2.772
 Vibration    11          0.630              1.863              2.300
 Vibration    12          0.634              1.852              2.218
 Vibration    13          0.642              1.827              2.053
 Vibration    14          0.657              1.780              1.808
 Vibration    15          0.661              1.768              1.752
 Vibration    16          0.679              1.714              1.546
 Vibration    17          0.683              1.703              1.507
 Vibration    18          0.684              1.699              1.495
 Vibration    19          0.702              1.646              1.338
 Vibration    20          0.726              1.578              1.171
 Vibration    21          0.738              1.546              1.104
 Vibration    22          0.753              1.505              1.024
 Vibration    23          0.762              1.480              0.981
 Vibration    24          0.791              1.406              0.861
 Vibration    25          0.826              1.319              0.741
 Vibration    26          0.866              1.225              0.631
 Vibration    27          0.884              1.187              0.590
 Vibration    28          0.894              1.164              0.568
 Vibration    29          0.915              1.119              0.525
 Vibration    30          0.924              1.100              0.508
 Vibration    31          0.942              1.063              0.476
 Vibration    32          0.947              1.054              0.468

 Optimization completed.
    -- Stationary point found.
 Normal termination of Gaussian 16 at Sun Oct 24 03:02:47 2021.
