 Gaussian 16, Revision C.01,
 Gaussian 16:  ES64L-G16RevC.01  3-Jul-2019

 ------------------------------------
 # opt b3lyp/6-31g(d) guess=read freq
 ------------------------------------

 --------------
 benzbenzNCHCH3
 --------------
 Symbolic Z-matrix:
 Charge =  0 Multiplicity = 1

 SCF Done:  E(RB3LYP) =  -807.450659706     A.U. after    2 cycles
 Optimization completed.
    -- Stationary point found.
 Normal termination of Gaussian 16 at Fri Oct  1 11:14:34 2021.

 --------------------------------------------------------------------
 #N Geom=AllCheck Guess=TCheck SCRF=Check GenChk RB3LYP/6-31G(d) Freq
 --------------------------------------------------------------------

 Structure from the checkpoint file:  "/home/rtong2/g16/093021/benzbenzNCHCH3-2.chk"
 --------------
 benzbenzNCHCH3
 --------------
 Charge =  0 Multiplicity = 1

                         Standard orientation:
 ---------------------------------------------------------------------
 Center     Atomic      Atomic             Coordinates (Angstroms)
 Number     Number       Type             X           Y           Z
 ---------------------------------------------------------------------
      1          6           0       -4.250525   -0.827275   -0.453262
      2          6           0       -3.058285   -1.550380   -0.495515
      3          6           0       -1.906709   -1.121607    0.175298
      4          6           0       -1.968991    0.090270    0.898980
      5          6           0       -3.175406    0.809398    0.953102
      6          6           0       -4.308818    0.357117    0.281853
      7          1           0       -5.130006   -1.195262   -0.974758
      8          1           0       -3.017235   -2.482364   -1.056340
      9          1           0       -3.221843    1.711162    1.557638
     10          1           0       -5.235367    0.922064    0.343379
     11          6           0       -0.635026   -1.937141    0.092801
     12          1           0        0.012719   -1.694397    0.939587
     13          1           0       -0.893712   -3.001234    0.171335
     14          6           0        0.162713   -1.752102   -1.229291
     15          1           0        0.957582   -2.505667   -1.243823
     16          1           0       -0.505654   -1.957186   -2.074690
     17          6           0        0.786602   -0.387738   -1.406890
     18          6           0        0.131914    0.620803   -2.120950
     19          6           0        2.045037   -0.093774   -0.833449
     20          6           0        0.695991    1.887603   -2.286425
     21          1           0       -0.839133    0.403373   -2.558947
     22          6           0        2.619843    1.174341   -1.016800
     23          6           0        1.948885    2.161863   -1.737444
     24          1           0        0.168612    2.646885   -2.857641
     25          1           0        3.614854    1.364185   -0.622962
     26          1           0        2.412396    3.134437   -1.882457
     27          7           0       -0.833077    0.515401    1.622896
     28          7           0        2.728696   -1.124564   -0.153579
     29          6           0       -0.474816    1.737378    1.570677
     30          6           0        3.312915   -0.884492    0.953351
     31          1           0        3.252950    0.105348    1.433266
     32          6           0        4.107788   -1.929743    1.674462
     33          1           0        5.148726   -1.602675    1.800541
     34          1           0        3.704718   -2.093242    2.682668
     35          1           0        4.091223   -2.871244    1.120437
     36          6           0        0.680176    2.261986    2.366844
     37          1           0        1.107094    1.470050    2.987328
     38          1           0        1.452982    2.655966    1.694069
     39          1           0        0.361692    3.093382    3.009790
     40          1           0       -0.991666    2.461519    0.922305
 ---------------------------------------------------------------------

 SCF Done:  E(RB3LYP) =  -807.450659706     A.U. after    1 cycles

 The electronic state is 1-A.
 Alpha  occ. eigenvalues --  -14.33116 -14.32700 -10.23632 -10.23204 -10.21319
 Alpha  occ. eigenvalues --  -10.21102 -10.18856 -10.18597 -10.18595 -10.18546
 Alpha  occ. eigenvalues --  -10.18476 -10.18456 -10.18241 -10.18218 -10.18135
 Alpha  occ. eigenvalues --  -10.18038 -10.18012 -10.17966 -10.17663 -10.17531
 Alpha  occ. eigenvalues --   -0.93163  -0.92775  -0.84361  -0.83836  -0.78558
 Alpha  occ. eigenvalues --   -0.75908  -0.75461  -0.74534  -0.71675  -0.71057
 Alpha  occ. eigenvalues --   -0.69449  -0.63160  -0.61695  -0.61388  -0.58319
 Alpha  occ. eigenvalues --   -0.56482  -0.55182  -0.54959  -0.51639  -0.51175
 Alpha  occ. eigenvalues --   -0.47535  -0.47280  -0.46128  -0.45870  -0.43537
 Alpha  occ. eigenvalues --   -0.43033  -0.42900  -0.42505  -0.41738  -0.41403
 Alpha  occ. eigenvalues --   -0.40959  -0.40565  -0.39642  -0.39100  -0.38818
 Alpha  occ. eigenvalues --   -0.37631  -0.36460  -0.35757  -0.35144  -0.34522
 Alpha  occ. eigenvalues --   -0.33442  -0.33021  -0.32550  -0.30918  -0.30682
 Alpha  occ. eigenvalues --   -0.26642  -0.26362  -0.24064  -0.23508  -0.21847
 Alpha  occ. eigenvalues --   -0.21260
 Alpha virt. eigenvalues --   -0.02495  -0.01864   0.00254   0.00905   0.03462
 Alpha virt. eigenvalues --    0.03747   0.09743   0.10355   0.10540   0.11906
 Alpha virt. eigenvalues --    0.12402   0.13439   0.14114   0.15206   0.15528

 Mulliken charges:
               1
     1  C   -0.123533
     2  C   -0.202954
     3  C    0.151348
     4  C    0.204175
     5  C   -0.152318
     6  C   -0.143818
     7  H    0.124196
     8  H    0.121801
     9  H    0.124027
    10  H    0.125791
    11  C   -0.347141
    12  H    0.171358
    13  H    0.137681
    14  C   -0.341703
    15  H    0.164369
    16  H    0.136648
    17  C    0.152922
    18  C   -0.200683
    19  C    0.211811
    20  C   -0.127370
    21  H    0.132443
    22  C   -0.157864
    23  C   -0.147961
    24  H    0.125290
    25  H    0.124321
    26  H    0.125441
    27  N   -0.429525
    28  N   -0.426408
    29  C    0.110088
    30  C    0.098164
    31  H    0.124802
    32  C   -0.497420
    33  H    0.162663
    34  H    0.166256
    35  H    0.178072
    36  C   -0.502385
    37  H    0.170634
    38  H    0.170059
    39  H    0.159226
    40  H    0.127499
 Sum of Mulliken charges =  -0.00000

 Dipole moment (field-independent basis, Debye):
    X=              0.8705    Y=              1.7517    Z=              0.9279  Tot=              2.1650
 Quadrupole moment (field-independent basis, Debye-Ang):
   XX=           -108.8011   YY=           -109.7933   ZZ=           -118.3126
   XY=              0.5257   XZ=              9.6604   YZ=              1.9539

  Exact polarizability:     233.726       5.915     203.105      46.701       1.878     155.102
 Approx polarizability:     344.416      10.236     345.459      85.638       9.564     244.743

                      1                      2                      3
                      A                      A                      A
 Frequencies --     26.0770                29.1865                49.0865
 Red. masses --      4.5136                 4.3236                 4.9659
 Frc consts  --      0.0018                 0.0022                 0.0070
 IR Inten    --      0.1059                 0.2648                 0.0986

                      4                      5                      6
                      A                      A                      A
 Frequencies --     69.9911                93.0208               100.1582
 Red. masses --      3.8068                 3.1625                 3.2387
 Frc consts  --      0.0110                 0.0161                 0.0191
 IR Inten    --      2.3973                 1.1312                 0.1211

                      7                      8                      9
                      A                      A                      A
 Frequencies --    108.1830               122.9633               140.7075
 Red. masses --      2.7559                 1.8753                 1.9249
 Frc consts  --      0.0190                 0.0167                 0.0225
 IR Inten    --      8.7058                 1.8557                 1.7019

                     10                     11                     12
                      A                      A                      A
 Frequencies --    150.9028               157.8257               199.2973
 Red. masses --      2.2931                 2.5853                 1.9577
 Frc consts  --      0.0308                 0.0379                 0.0458
 IR Inten    --      0.4166                 0.1915                 0.8894

                     13                     14                     15
                      A                      A                      A
 Frequencies --    203.5316               210.6834               284.4760
 Red. masses --      1.6470                 2.6518                 4.2406
 Frc consts  --      0.0402                 0.0694                 0.2022
 IR Inten    --      1.8096                 2.0477                 2.1888

                     16                     17                     18
                      A                      A                      A
 Frequencies --    312.7295               324.4976               338.4678
 Red. masses --      3.0887                 3.2727                 3.0436
 Frc consts  --      0.1780                 0.2030                 0.2054
 IR Inten    --      0.2925                 0.8776                 1.0343

                     19                     20                     21
                      A                      A                      A
 Frequencies --    371.8947               389.4425               400.3763
 Red. masses --      3.3708                 3.0867                 3.1775
 Frc consts  --      0.2747                 0.2758                 0.3001
 IR Inten    --      3.6760                 5.1489                 3.0478

                     22                     23                     24
                      A                      A                      A
 Frequencies --    475.7935               487.9627               498.0757
 Red. masses --      3.5760                 3.5942                 3.4949
 Frc consts  --      0.4770                 0.5042                 0.5108
 IR Inten    --      0.6638                 4.0362                 3.2473

                     25                     26                     27
                      A                      A                      A
 Frequencies --    524.5250               535.4656               546.4014
 Red. masses --      3.4153                 3.9174                 3.9627
 Frc consts  --      0.5536                 0.6618                 0.6970
 IR Inten    --      0.8952                 3.4494                 0.8837

                     28                     29                     30
                      A                      A                      A
 Frequencies --    573.5010               601.1445               629.3140
 Red. masses --      4.1297                 3.3275                 5.2806
 Frc consts  --      0.8003                 0.7085                 1.2322
 IR Inten    --      0.1339                 1.7129                 0.4293

                     31                     32                     33
                      A                      A                      A
 Frequencies --    629.7404               748.6827               755.0562
 Red. masses --      5.2394                 2.4126                 2.9591
 Frc consts  --      1.2242                 0.7968                 0.9940
 IR Inten    --      0.5926                 2.0438                11.3844

                     34                     35                     36
                      A                      A                      A
 Frequencies --    759.5998               765.4345               779.0547
 Red. masses --      3.4292                 1.4879                 1.6538
 Frc consts  --      1.1658                 0.5136                 0.5914
 IR Inten    --      6.0099                52.7057                13.3140

                     37                     38                     39
                      A                      A                      A
 Frequencies --    786.4041               831.4664               834.3403
 Red. masses --      2.7649                 3.3110                 3.3184
 Frc consts  --      1.0074                 1.3486                 1.3610
 IR Inten    --     21.3581                14.0719                 8.1049

                     40                     41                     42
                      A                      A                      A
 Frequencies --    874.3244               876.0171               900.1186
 Red. masses --      1.3654                 1.3783                 1.2954
 Frc consts  --      0.6150                 0.6232                 0.6184
 IR Inten    --      3.2770                 0.2206                 6.7122

                     43                     44                     45
                      A                      A                      A
 Frequencies --    903.9793               932.8442               940.0853
 Red. masses --      1.3453                 1.5798                 1.4168
 Frc consts  --      0.6477                 0.8100                 0.7377
 IR Inten    --      0.6980                 5.1326                 1.4110

                     46                     47                     48
                      A                      A                      A
 Frequencies --    950.2687               957.6719               963.7516
 Red. masses --      2.1190                 1.9895                 2.2326
 Frc consts  --      1.1274                 1.0750                 1.2218
 IR Inten    --      5.4893                 8.4624                 1.9495

                     49                     50                     51
                      A                      A                      A
 Frequencies --    964.9324               975.1183               975.6880
 Red. masses --      2.2491                 1.2505                 1.2731
 Frc consts  --      1.2338                 0.7006                 0.7141
 IR Inten    --      5.1774                 0.1607                 0.5019

                     52                     53                     54
                      A                      A                      A
 Frequencies --   1019.9841              1074.8880              1077.7759
 Red. masses --      2.4658                 2.1668                 2.1881
 Frc consts  --      1.5114                 1.4750                 1.4975
 IR Inten    --      1.3334                 3.4877                 3.1456

                     55                     56                     57
                      A                      A                      A
 Frequencies --   1103.6080              1104.2481              1116.4917
 Red. masses --      1.6289                 1.6267                 1.9509
 Frc consts  --      1.1689                 1.1687                 1.4328
 IR Inten    --      0.4554                 0.2271                 4.8358

                     58                     59                     60
                      A                      A                      A
 Frequencies --   1136.7707              1159.2951              1160.7193
 Red. masses --      2.0920                 2.1861                 2.1919
 Frc consts  --      1.5928                 1.7310                 1.7399
 IR Inten    --      6.2776                 8.4582                 3.3440

                     61                     62                     63
                      A                      A                      A
 Frequencies --   1190.4201              1192.9596              1195.3532
 Red. masses --      1.1404                 1.0909                 1.1992
 Frc consts  --      0.9522                 0.9147                 1.0096
 IR Inten    --      2.6900                 0.4024                 2.1149

                     64                     65                     66
                      A                      A                      A
 Frequencies --   1211.6379              1220.7419              1244.0106
 Red. masses --      1.8717                 2.3779                 2.1573
 Frc consts  --      1.6190                 2.0879                 1.9670
 IR Inten    --      0.0723                 3.7505                13.3546

                     67                     68                     69
                      A                      A                      A
 Frequencies --   1249.5906              1260.9826              1316.8061
 Red. masses --      3.2441                 1.5909                 1.6803
 Frc consts  --      2.9845                 1.4904                 1.7167
 IR Inten    --     15.5973                 4.1900                 0.3464

                     70                     71                     72
                      A                      A                      A
 Frequencies --   1319.7938              1343.3963              1357.9503
 Red. masses --      1.7255                 2.7306                 3.3246
 Frc consts  --      1.7708                 2.9034                 3.6121
 IR Inten    --      0.4104                 1.2157                 2.5076

                     73                     74                     75
                      A                      A                      A
 Frequencies --   1379.9272              1395.5096              1402.2036
 Red. masses --      1.5030                 1.4362                 1.2517
 Frc consts  --      1.6862                 1.6479                 1.4500
 IR Inten    --      1.0201                 7.5982                 2.8266

                     76                     77                     78
                      A                      A                      A
 Frequencies --   1403.3836              1432.4499              1434.5300
 Red. masses --      1.2391                 1.3684                 1.3586
 Frc consts  --      1.4379                 1.6543                 1.6473
 IR Inten    --      2.2638                11.5606                 8.3431

                     79                     80                     81
                      A                      A                      A
 Frequencies --   1491.8395              1492.3677              1501.5327
 Red. masses --      2.1211                 2.2110                 1.0642
 Frc consts  --      2.7814                 2.9013                 1.4137
 IR Inten    --      7.8203                 5.5748                14.0321

                     82                     83                     84
                      A                      A                      A
 Frequencies --   1501.9851              1505.7755              1506.3940
 Red. masses --      1.0622                 1.0527                 1.0502
 Frc consts  --      1.4118                 1.4062                 1.4041
 IR Inten    --     14.2768                 9.2870                10.1742

                     85                     86                     87
                      A                      A                      A
 Frequencies --   1507.8961              1515.8013              1531.6318
 Red. masses --      1.1257                 1.1307                 2.5404
 Frc consts  --      1.5080                 1.5306                 3.5113
 IR Inten    --     10.8423                 4.9538                17.7224

                     88                     89                     90
                      A                      A                      A
 Frequencies --   1533.8849              1629.7818              1631.0125
 Red. masses --      2.5040                 5.9370                 6.0146
 Frc consts  --      3.4712                 9.2913                 9.4269
 IR Inten    --     16.1311                 1.9739                 3.1875

                     91                     92                     93
                      A                      A                      A
 Frequencies --   1650.7160              1652.5113              1745.2256
 Red. masses --      5.6669                 5.6085                 7.6015
 Frc consts  --      9.0978                 9.0238                13.6412
 IR Inten    --      6.0010                 6.5390                58.6215

                     94                     95                     96
                      A                      A                      A
 Frequencies --   1747.1152              3017.7127              3027.3783
 Red. masses --      7.5700                 1.0821                 1.0793
 Frc consts  --     13.6142                 5.8061                 5.8281
 IR Inten    --    126.6943                41.0793                24.5587

                     97                     98                     99
                      A                      A                      A
 Frequencies --   3040.8373              3042.3284              3043.2585
 Red. masses --      1.0415                 1.0439                 1.0668
 Frc consts  --      5.6740                 5.6930                 5.8213
 IR Inten    --     20.1112                22.6482                20.4447

                    100                    101                    102
                      A                      A                      A
 Frequencies --   3051.5533              3088.7531              3092.4294
 Red. masses --      1.0628                 1.0993                 1.0993
 Frc consts  --      5.8311                 6.1794                 6.1940
 IR Inten    --     39.9037                14.5537                14.6693

                    103                    104                    105
                      A                      A                      A
 Frequencies --   3100.1406              3123.1760              3150.6491
 Red. masses --      1.1010                 1.0955                 1.1010
 Frc consts  --      6.2345                 6.2960                 6.4394
 IR Inten    --     13.6776                13.6807                11.0932

                    106                    107                    108
                      A                      A                      A
 Frequencies --   3155.7482              3168.8057              3177.3215
 Red. masses --      1.1003                 1.0870                 1.0846
 Frc consts  --      6.4563                 6.4309                 6.4514
 IR Inten    --     10.1443                11.4028                 1.5448

                    109                    110                    111
                      A                      A                      A
 Frequencies --   3182.0552              3185.5344              3194.9841
 Red. masses --      1.0868                 1.0885                 1.0917
 Frc consts  --      6.4836                 6.5081                 6.5657
 IR Inten    --      5.0889                 7.3825                25.7321

                    112                    113                    114
                      A                      A                      A
 Frequencies --   3195.0979              3206.0182              3206.2864
 Red. masses --      1.0926                 1.0974                 1.0973
 Frc consts  --      6.5715                 6.6457                 6.6465
 IR Inten    --     26.5348                21.9229                32.1474

 - Thermochemistry -
 -------------------
 Temperature   298.150 Kelvin.  Pressure   1.00000 Atm.
 Atom     1 has atomic number  6 and mass  12.00000

 Molecular mass:   264.16265 amu.
 Principal axes and moments of inertia in atomic units:
                           1         2         3
     Eigenvalues --  3635.839237395.712647560.17562
           X            0.99960  -0.00897   0.02674
           Y            0.00587   0.99352   0.11355
           Z           -0.02759  -0.11335   0.99317
 This molecule is an asymmetric top.
 Rotational symmetry number  1.
 Warning -- assumption of classical behavior for rotation
           may cause significant error
 Rotational temperatures (Kelvin)      0.02382     0.01171     0.01146
 Rotational constants (GHZ):           0.49638     0.24403     0.23872
 Zero-point vibrational energy     886200.9 (Joules/Mol)
                                  211.80711 (Kcal/Mol)
 Warning -- explicit consideration of  29 degrees of freedom as
           vibrations may cause significant error
 Vibrational temperatures:     37.52    41.99    70.62   100.70   133.84
          (Kelvin)            144.11   155.65   176.92   202.45   217.12
                              227.08   286.74   292.84   303.13   409.30
                              449.95   466.88   486.98   535.07   560.32
                              576.05   684.56   702.07   716.62   754.67
                              770.42   786.15   825.14   864.91   905.44
                              906.06  1077.19  1086.36  1092.89  1101.29
                             1120.89  1131.46  1196.29  1200.43  1257.96
                             1260.39  1295.07  1300.62  1342.15  1352.57
                             1367.22  1377.88  1386.62  1388.32  1402.98
                             1403.80  1467.53  1546.52  1550.68  1587.85
                             1588.77  1606.38  1635.56  1667.97  1670.02
                             1712.75  1716.40  1719.85  1743.28  1756.38
                             1789.85  1797.88  1814.27  1894.59  1898.89
                             1932.85  1953.79  1985.41  2007.83  2017.46
                             2019.16  2060.98  2063.97  2146.42  2147.18
                             2160.37  2161.02  2166.48  2167.36  2169.53
                             2180.90  2203.68  2206.92  2344.89  2346.66
                             2375.01  2377.60  2510.99  2513.71  4341.82
                             4355.72  4375.09  4377.23  4378.57  4390.50
                             4444.03  4449.32  4460.41  4493.55  4533.08
                             4540.42  4559.20  4571.46  4578.27  4583.27
                             4596.87  4597.03  4612.75  4613.13

 Zero-point correction=                           0.337536 (Hartree/Particle)
 Thermal correction to Energy=                    0.356484
 Thermal correction to Enthalpy=                  0.357428
 Thermal correction to Gibbs Free Energy=         0.289288
 Sum of electronic and zero-point Energies=           -807.113124
 Sum of electronic and thermal Energies=              -807.094175
 Sum of electronic and thermal Enthalpies=            -807.093231
 Sum of electronic and thermal Free Energies=         -807.161371

                     E (Thermal)             CV                S
                      KCal/Mol        Cal/Mol-Kelvin    Cal/Mol-Kelvin
 Total                  223.697             72.414            143.413
 Electronic               0.000              0.000              0.000
 Translational            0.889              2.981             42.614
 Rotational               0.889              2.981             33.674
 Vibrational            221.920             66.452             67.125
 Vibration     1          0.593              1.985              6.107
 Vibration     2          0.593              1.984              5.884
 Vibration     3          0.595              1.978              4.854
 Vibration     4          0.598              1.968              4.154
 Vibration     5          0.602              1.954              3.596
 Vibration     6          0.604              1.949              3.451
 Vibration     7          0.606              1.943              3.301
 Vibration     8          0.610              1.930              3.053
 Vibration     9          0.615              1.913              2.794
 Vibration    10          0.618              1.902              2.661
 Vibration    11          0.621              1.894              2.576
 Vibration    12          0.637              1.841              2.140
 Vibration    13          0.639              1.835              2.101
 Vibration    14          0.643              1.825              2.038
 Vibration    15          0.683              1.702              1.507
 Vibration    16          0.701              1.649              1.348
 Vibration    17          0.709              1.626              1.287
 Vibration    18          0.719              1.599              1.219
 Vibration    19          0.744              1.530              1.072
 Vibration    20          0.757              1.493              1.002
 Vibration    21          0.766              1.469              0.961
 Vibration    22          0.832              1.304              0.721
 Vibration    23          0.844              1.277              0.689
 Vibration    24          0.854              1.254              0.663
 Vibration    25          0.879              1.196              0.600
 Vibration    26          0.890              1.172              0.575
 Vibration    27          0.902              1.148              0.552
 Vibration    28          0.930              1.089              0.498
 Vibration    29          0.959              1.029              0.448

 Optimization completed.
    -- Stationary point found.
 Normal termination of Gaussian 16 at Fri Oct  1 11:25:12 2021.
