 Gaussian 16, Revision C.01,
 Gaussian 16:  ES64L-G16RevC.01  3-Jul-2019

 ----------------------------------------------------
 # opt freq b3lyp/6-31g(d) scrf=(smd,solvent=toluene)
 ----------------------------------------------------

 ----
 HHbz
 ----
 Symbolic Z-matrix:
 Charge =  0 Multiplicity = 1

 SCF Done:  E(RB3LYP) =  -346.782188448     A.U. after   12 cycles
 SCF Done:  E(RB3LYP) =  -346.786244821     A.U. after   11 cycles
 SCF Done:  E(RB3LYP) =  -346.786510044     A.U. after   10 cycles
 SCF Done:  E(RB3LYP) =  -346.786548178     A.U. after    9 cycles
 SCF Done:  E(RB3LYP) =  -346.786812367     A.U. after   10 cycles
 SCF Done:  E(RB3LYP) =  -346.755254883     A.U. after   12 cycles
 SCF Done:  E(RB3LYP) =  -346.789165433     A.U. after   12 cycles
 SCF Done:  E(RB3LYP) =  -346.779885085     A.U. after   12 cycles
 SCF Done:  E(RB3LYP) =  -346.790885558     A.U. after   11 cycles
 SCF Done:  E(RB3LYP) =  -346.789449048     A.U. after   11 cycles
 SCF Done:  E(RB3LYP) =  -346.792372089     A.U. after   10 cycles
 SCF Done:  E(RB3LYP) =  -346.792485189     A.U. after   10 cycles
 SCF Done:  E(RB3LYP) =  -346.792491195     A.U. after    9 cycles
 SCF Done:  E(RB3LYP) =  -346.792491717     A.U. after    8 cycles
 Optimization completed.
    -- Stationary point found.
 Normal termination of Gaussian 16 at Thu Sep 23 12:41:26 2021.

 --------------------------------------------------------------------
 #N Geom=AllCheck Guess=TCheck SCRF=Check GenChk RB3LYP/6-31G(d) Freq
 --------------------------------------------------------------------

 Structure from the checkpoint file:  "HHbz.chk"
 ----
 HHbz
 ----
 Charge =  0 Multiplicity = 1

                         Standard orientation:
 ---------------------------------------------------------------------
 Center     Atomic      Atomic             Coordinates (Angstroms)
 Number     Number       Type             X           Y           Z
 ---------------------------------------------------------------------
      1          6           0        2.002667   -0.479246   -0.000003
      2          6           0        0.891415   -1.319657    0.000093
      3          6           0       -0.395567   -0.773865    0.000036
      4          6           0       -0.591409    0.620409    0.000037
      5          6           0        0.543876    1.439285   -0.000055
      6          6           0        1.833805    0.906895   -0.000061
      7          1           0        3.000420   -0.910416    0.000007
      8          1           0        0.998953   -2.400406    0.000018
      9          1           0        0.405065    2.518302   -0.000038
     10          1           0        2.696174    1.567561    0.000112
     11          8           0       -1.441435   -1.656773   -0.000097
     12          1           0       -2.277963   -1.165467    0.000129
     13          6           0       -1.986696    1.199400    0.000029
     14          1           0       -2.562813    0.896854   -0.886788
     15          1           0       -2.563345    0.895644    0.886043
     16          1           0       -1.953559    2.292791    0.000844
 ---------------------------------------------------------------------

 SCF Done:  E(RB3LYP) =  -346.792491717     A.U. after    1 cycles

 The electronic state is 1-A.
 Alpha  occ. eigenvalues --  -19.17306 -10.24134 -10.19144 -10.18794 -10.18344
 Alpha  occ. eigenvalues --  -10.18308 -10.17794 -10.17631  -1.05332  -0.84399
 Alpha  occ. eigenvalues --   -0.76805  -0.73147  -0.68505  -0.59894  -0.59591
 Alpha  occ. eigenvalues --   -0.53126  -0.48560  -0.45771  -0.42868  -0.42826
 Alpha  occ. eigenvalues --   -0.40631  -0.38991  -0.38481  -0.38144  -0.34732
 Alpha  occ. eigenvalues --   -0.32954  -0.32672  -0.24043  -0.21357
 Alpha virt. eigenvalues --    0.00638   0.01829   0.07278   0.10579   0.14161
 Alpha virt. eigenvalues --    0.15050   0.15274   0.17709   0.18218   0.20098
 Alpha virt. eigenvalues --    0.20434   0.23587   0.25788   0.31110   0.32772

 Mulliken charges:
               1
     1  C   -0.151957
     2  C   -0.171083
     3  C    0.270733
     4  C    0.147974
     5  C   -0.207527
     6  C   -0.146211
     7  H    0.140307
     8  H    0.144169
     9  H    0.134330
    10  H    0.135223
    11  O   -0.653277
    12  H    0.423262
    13  C   -0.583098
    14  H    0.169872
    15  H    0.169827
    16  H    0.177456
 Sum of Mulliken charges =   0.00000

 Dipole moment (field-independent basis, Debye):
    X=             -1.3485    Y=              1.3818    Z=              0.0005  Tot=              1.9308
 Quadrupole moment (field-independent basis, Debye-Ang):
   XX=            -38.5972   YY=            -46.5551   ZZ=            -50.0019
   XY=             -1.8504   XZ=             -0.0006   YZ=             -0.0001

  Exact polarizability:     113.724      -1.462      99.519       0.001      -0.001      36.155
 Approx polarizability:     150.960       4.146     140.716      -0.000      -0.002      48.238

                      1                      2                      3
                      A                      A                      A
 Frequencies --    170.9106               184.2147               265.6560
 Red. masses --      2.1859                 1.1970                 3.9346
 Frc consts  --      0.0376                 0.0239                 0.1636
 IR Inten    --      0.9371                 2.0280                 6.1945

                      4                      5                      6
                      A                      A                      A
 Frequencies --    300.0312               314.3782               435.0350
 Red. masses --      3.0618                 1.1126                 4.0245
 Frc consts  --      0.1624                 0.0648                 0.4488
 IR Inten    --      0.8631               121.8916                10.4093

                      7                      8                      9
                      A                      A                      A
 Frequencies --    452.2295               530.6463               553.0538
 Red. masses --      3.0418                 4.6901                 3.5876
 Frc consts  --      0.3665                 0.7781                 0.6465
 IR Inten    --      3.3524                 1.5872                 0.3023

                     10                     11                     12
                      A                      A                      A
 Frequencies --    593.0497               718.9992               761.8119
 Red. masses --      6.5433                 3.5909                 4.7195
 Frc consts  --      1.3559                 1.0937                 1.6138
 IR Inten    --      2.1273                 0.3016                 9.0187

                     13                     14                     15
                      A                      A                      A
 Frequencies --    768.9719               852.7547               867.6669
 Red. masses --      1.2912                 4.6352                 1.3476
 Frc consts  --      0.4499                 1.9859                 0.5977
 IR Inten    --     58.4439                 9.0019                 1.4381

                     16                     17                     18
                      A                      A                      A
 Frequencies --    938.2162               974.1407              1006.9918
 Red. masses --      1.3374                 1.2347                 1.6023
 Frc consts  --      0.6936                 0.6903                 0.9573
 IR Inten    --      1.9631                 0.0029                 8.2875

                     19                     20                     21
                      A                      A                      A
 Frequencies --   1067.0498              1071.9048              1132.8119
 Red. masses --      2.1414                 1.4677                 1.6726
 Frc consts  --      1.4366                 0.9936                 1.2646
 IR Inten    --     18.4436                 2.7233                 0.2196

                     22                     23                     24
                      A                      A                      A
 Frequencies --   1182.9253              1196.4819              1249.3485
 Red. masses --      1.1084                 1.4211                 2.5983
 Frc consts  --      0.9138                 1.1987                 2.3895
 IR Inten    --     10.4488                54.6539               148.5653

                     25                     26                     27
                      A                      A                      A
 Frequencies --   1304.5378              1341.0298              1385.3784
 Red. masses --      2.6170                 2.0267                 2.4449
 Frc consts  --      2.6240                 2.1474                 2.7647
 IR Inten    --     67.3348                 9.7582                34.4698

                     28                     29                     30
                      A                      A                      A
 Frequencies --   1441.4991              1500.5948              1515.3378
 Red. masses --      1.2520                 1.7759                 1.0432
 Frc consts  --      1.5328                 2.3561                 1.4113
 IR Inten    --      0.9550                14.4653                 8.9137

                     31                     32                     33
                      A                      A                      A
 Frequencies --   1535.8379              1542.5975              1645.0846
 Red. masses --      1.4613                 2.2253                 5.6733
 Frc consts  --      2.0309                 3.1200                 9.0462
 IR Inten    --     15.8245                97.8583                48.5809

                     34                     35                     36
                      A                      A                      A
 Frequencies --   1676.3996              3020.3790              3063.9695
 Red. masses --      5.9951                 1.0420                 1.1014
 Frc consts  --      9.9266                 5.6006                 6.0921
 IR Inten    --      9.4658                37.1470                26.4347

                     37                     38                     39
                      A                      A                      A
 Frequencies --   3130.8604              3178.8190              3190.4280
 Red. masses --      1.0957                 1.0873                 1.0883
 Frc consts  --      6.3279                 6.4732                 6.5266
 IR Inten    --     13.6123                10.7918                14.0798

                     40                     41                     42
                      A                      A                      A
 Frequencies --   3205.7825              3214.5041              3744.0516
 Red. masses --      1.0930                 1.0966                 1.0654
 Frc consts  --      6.6181                 6.6762                 8.7993
 IR Inten    --     29.3532                14.1890                74.9585

 - Thermochemistry -
 -------------------
 Temperature   298.150 Kelvin.  Pressure   1.00000 Atm.
 Atom     1 has atomic number  6 and mass  12.00000

 Molecular mass:   108.05751 amu.
 Principal axes and moments of inertia in atomic units:
                           1         2         3
     Eigenvalues --   557.33151 822.079681368.09974
           X            0.99634  -0.08551  -0.00000
           Y            0.08551   0.99634   0.00000
           Z            0.00000  -0.00000   1.00000
 This molecule is an asymmetric top.
 Rotational symmetry number  1.
 Warning -- assumption of classical behavior for rotation
           may cause significant error
 Rotational temperatures (Kelvin)      0.15541     0.10536     0.06331
 Rotational constants (GHZ):           3.23818     2.19534     1.31916
 Zero-point vibrational energy     348271.0 (Joules/Mol)
                                   83.23878 (Kcal/Mol)
 Warning -- explicit consideration of  10 degrees of freedom as
           vibrations may cause significant error
 Vibrational temperatures:    245.90   265.04   382.22   431.68   452.32
          (Kelvin)            625.92   650.66   763.48   795.72   853.27
                             1034.48  1096.08  1106.38  1226.92  1248.38
                             1349.88  1401.57  1448.84  1535.25  1542.23
                             1629.86  1701.97  1721.47  1797.53  1876.94
                             1929.44  1993.25  2074.00  2159.02  2180.23
                             2209.73  2219.45  2366.91  2411.97  4345.65
                             4408.37  4504.61  4573.61  4590.31  4612.41
                             4624.95  5386.86

 Zero-point correction=                           0.132649 (Hartree/Particle)
 Thermal correction to Energy=                    0.139772
 Thermal correction to Enthalpy=                  0.140716
 Thermal correction to Gibbs Free Energy=         0.101736
 Sum of electronic and zero-point Energies=           -346.659842
 Sum of electronic and thermal Energies=              -346.652720
 Sum of electronic and thermal Enthalpies=            -346.651775
 Sum of electronic and thermal Free Energies=         -346.690756

                     E (Thermal)             CV                S
                      KCal/Mol        Cal/Mol-Kelvin    Cal/Mol-Kelvin
 Total                   87.708             27.726             82.042
 Electronic               0.000              0.000              0.000
 Translational            0.889              2.981             39.949
 Rotational               0.889              2.981             27.929
 Vibrational             85.931             21.764             14.163
 Vibration     1          0.626              1.878              2.425
 Vibration     2          0.631              1.861              2.285
 Vibration     3          0.671              1.736              1.624
 Vibration     4          0.693              1.674              1.417
 Vibration     5          0.702              1.646              1.339
 Vibration     6          0.796              1.394              0.842
 Vibration     7          0.811              1.356              0.789
 Vibration     8          0.886              1.182              0.586
 Vibration     9          0.908              1.133              0.538
 Vibration    10          0.951              1.047              0.462

 Optimization completed.
    -- Stationary point found.
 Normal termination of Gaussian 16 at Thu Sep 23 12:43:10 2021.
