 Gaussian 16, Revision C.01,
 Gaussian 16:  ES64L-G16RevC.01  3-Jul-2019

 -----------------------------------------------------
 # opt freq b3lyp/6-31g(2d) scrf=(smd,solvent=toluene)
 -----------------------------------------------------

 ------
 A10PDB
 ------
 Symbolic Z-matrix:
 Charge =  0 Multiplicity = 1

 SCF Done:  E(RB3LYP) =  -577.857988981     A.U. after   13 cycles
 SCF Done:  E(RB3LYP) =  -577.860409839     A.U. after   10 cycles
 SCF Done:  E(RB3LYP) =  -577.860502130     A.U. after    9 cycles
 SCF Done:  E(RB3LYP) =  -577.860509260     A.U. after    8 cycles
 SCF Done:  E(RB3LYP) =  -577.860509082     A.U. after    7 cycles
 SCF Done:  E(RB3LYP) =  -577.860520976     A.U. after    9 cycles
 SCF Done:  E(RB3LYP) =  -577.860951984     A.U. after   11 cycles
 SCF Done:  E(RB3LYP) =  -577.833156127     A.U. after   12 cycles
 SCF Done:  E(RB3LYP) =  -577.860510681     A.U. after   12 cycles
 SCF Done:  E(RB3LYP) =  -577.861714344     A.U. after    9 cycles
 SCF Done:  E(RB3LYP) =  -577.861794856     A.U. after   11 cycles
 SCF Done:  E(RB3LYP) =  -577.862264159     A.U. after   11 cycles
 SCF Done:  E(RB3LYP) =  -577.862473889     A.U. after   10 cycles
 SCF Done:  E(RB3LYP) =  -577.862491975     A.U. after    9 cycles
 SCF Done:  E(RB3LYP) =  -577.862494513     A.U. after    8 cycles
 SCF Done:  E(RB3LYP) =  -577.862494922     A.U. after    7 cycles
 SCF Done:  E(RB3LYP) =  -577.862495011     A.U. after    7 cycles
 SCF Done:  E(RB3LYP) =  -577.862495043     A.U. after    6 cycles
 SCF Done:  E(RB3LYP) =  -577.862495066     A.U. after    5 cycles
 Optimization completed.
    -- Stationary point found.
 Normal termination of Gaussian 16 at Thu Nov 18 16:45:01 2021.

 ---------------------------------------------------------------------
 #N Geom=AllCheck Guess=TCheck SCRF=Check GenChk RB3LYP/6-31G(2d) Freq
 ---------------------------------------------------------------------

 Structure from the checkpoint file:  "A10PDB.chk"
 ------
 A10PDB
 ------
 Charge =  0 Multiplicity = 1

                         Standard orientation:
 ---------------------------------------------------------------------
 Center     Atomic      Atomic             Coordinates (Angstroms)
 Number     Number       Type             X           Y           Z
 ---------------------------------------------------------------------
      1          6           0       -0.787246    1.748400    0.352432
      2          6           0       -0.302136    0.457079    0.103068
      3          6           0       -1.236111   -0.572906   -0.120307
      4          6           0       -2.619590   -0.330666   -0.079046
      5          6           0       -3.054294    0.966396    0.187453
      6          6           0       -2.150795    2.007041    0.399183
      7          1           0       -0.071833    2.547472    0.532277
      8          1           0       -4.124549    1.161094    0.224259
      9          1           0       -2.510259    3.011773    0.605932
     10          6           0       -3.584507   -1.459385   -0.330979
     11          1           0       -3.431197   -1.906501   -1.321819
     12          1           0       -3.457425   -2.270609    0.397820
     13          1           0       -4.619951   -1.107936   -0.271854
     14          8           0       -0.860414   -1.850997   -0.412291
     15          1           0        0.104680   -1.882498   -0.491680
     16          6           0        1.162478    0.197050    0.055728
     17          6           0        2.002025    0.999922   -0.732382
     18          6           0        1.749490   -0.837652    0.804598
     19          6           0        3.375129    0.777758   -0.771398
     20          1           0        1.564324    1.797526   -1.327720
     21          6           0        3.124509   -1.063442    0.759546
     22          1           0        1.128230   -1.447855    1.457079
     23          6           0        3.941988   -0.257656   -0.028808
     24          1           0        4.004837    1.412134   -1.391122
     25          1           0        3.556312   -1.865415    1.353854
     26          1           0        5.014517   -0.432839   -0.063227
 ---------------------------------------------------------------------

 SCF Done:  E(RB3LYP) =  -577.862495066     A.U. after    1 cycles

 The electronic state is 1-A.
 Alpha  occ. eigenvalues --  -19.16137 -10.23604 -10.19917 -10.18869 -10.18805
 Alpha  occ. eigenvalues --  -10.18750 -10.18733 -10.18642 -10.18601 -10.18239
 Alpha  occ. eigenvalues --  -10.17842 -10.17651 -10.17126 -10.16979  -1.05400
 Alpha  occ. eigenvalues --   -0.86336  -0.84262  -0.78152  -0.75074  -0.74654
 Alpha  occ. eigenvalues --   -0.71671  -0.67559  -0.62893  -0.60752  -0.59029
 Alpha  occ. eigenvalues --   -0.57049  -0.53432  -0.51130  -0.48052  -0.46654
 Alpha  occ. eigenvalues --   -0.45116  -0.44569  -0.42294  -0.42005  -0.41676
 Alpha  occ. eigenvalues --   -0.40584  -0.38795  -0.37955  -0.37607  -0.36582
 Alpha  occ. eigenvalues --   -0.36176  -0.34616  -0.33684  -0.32863  -0.32176
 Alpha  occ. eigenvalues --   -0.26589  -0.25411  -0.22829  -0.20920
 Alpha virt. eigenvalues --   -0.02003  -0.00694   0.01394   0.02789   0.09475
 Alpha virt. eigenvalues --    0.10938   0.11444   0.13815   0.14273   0.15014
 Alpha virt. eigenvalues --    0.15759   0.16141   0.16642   0.18070   0.18756

 Mulliken charges:
               1
     1  C   -0.285517
     2  C    0.130159
     3  C    0.214513
     4  C    0.257910
     5  C   -0.273126
     6  C   -0.143191
     7  H    0.135274
     8  H    0.129333
     9  H    0.129391
    10  C   -0.616668
    11  H    0.178525
    12  H    0.177569
    13  H    0.169447
    14  O   -0.581457
    15  H    0.397170
    16  C    0.208899
    17  C   -0.257063
    18  C   -0.290553
    19  C   -0.125611
    20  H    0.143553
    21  C   -0.124643
    22  H    0.154538
    23  C   -0.158459
    24  H    0.143011
    25  H    0.143884
    26  H    0.143114
 Sum of Mulliken charges =  -0.00000

 Dipole moment (field-independent basis, Debye):
    X=              1.5822    Y=              0.1859    Z=             -0.0586  Tot=              1.5942
 Quadrupole moment (field-independent basis, Debye-Ang):
   XX=            -70.8822   YY=            -77.8247   ZZ=            -82.3840
   XY=             -2.4310   XZ=             -1.1009   YZ=             -2.5705

  Exact polarizability:     243.065      -6.835     164.227      -4.753     -11.277      92.242
 Approx polarizability:     296.493      -9.495     242.486      -7.364     -17.753     136.680

                      1                      2                      3
                      A                      A                      A
 Frequencies --     60.1580                76.6235                98.5239
 Red. masses --      3.8707                 4.1236                 4.2486
 Frc consts  --      0.0083                 0.0143                 0.0243
 IR Inten    --      0.1650                 0.3926                 0.0295

                      4                      5                      6
                      A                      A                      A
 Frequencies --    136.8404               176.2069               254.9411
 Red. masses --      1.0489                 4.3747                 3.5242
 Frc consts  --      0.0116                 0.0800                 0.1350
 IR Inten    --      0.0348                 0.7359                 1.7801

                      7                      8                      9
                      A                      A                      A
 Frequencies --    268.2757               290.9187               315.2280
 Red. masses --      4.0003                 5.0665                 3.5466
 Frc consts  --      0.1696                 0.2526                 0.2076
 IR Inten    --      1.3727                 1.7679                 2.8947

                     10                     11                     12
                      A                      A                      A
 Frequencies --    357.3849               415.9506               461.7412
 Red. masses --      4.5167                 2.5526                 2.5572
 Frc consts  --      0.3399                 0.2602                 0.3212
 IR Inten    --      1.4998                 7.9833                14.0682

                     13                     14                     15
                      A                      A                      A
 Frequencies --    479.4256               519.7120               564.0892
 Red. masses --      1.4089                 4.4980                 4.1615
 Frc consts  --      0.1908                 0.7158                 0.7802
 IR Inten    --     70.3526                 7.8426                 1.2922

                     16                     17                     18
                      A                      A                      A
 Frequencies --    565.9511               579.5727               606.4651
 Red. masses --      4.1228                 3.7752                 6.1067
 Frc consts  --      0.7780                 0.7471                 1.3233
 IR Inten    --      2.9710                 1.9215                 9.1761

                     19                     20                     21
                      A                      A                      A
 Frequencies --    635.4988               693.6757               728.0188
 Red. masses --      6.2605                 5.9372                 1.7717
 Frc consts  --      1.4897                 1.6832                 0.5533
 IR Inten    --      0.8024                 3.1745                27.3884

                     22                     23                     24
                      A                      A                      A
 Frequencies --    761.7875               777.6483               806.3669
 Red. masses --      2.7295                 1.5360                 2.1325
 Frc consts  --      0.9332                 0.5473                 0.8170
 IR Inten    --     10.4411                51.5973                 5.8340

                     25                     26                     27
                      A                      A                      A
 Frequencies --    844.1508               870.9651               873.6812
 Red. masses --      5.2565                 1.4072                 2.9711
 Frc consts  --      2.2069                 0.6289                 1.3362
 IR Inten    --      8.7569                 3.0157                 7.8772

                     28                     29                     30
                      A                      A                      A
 Frequencies --    915.3133               939.6520               950.4695
 Red. masses --      1.3337                 1.4100                 1.2597
 Frc consts  --      0.6584                 0.7335                 0.6705
 IR Inten    --      0.2868                 2.2975                 1.0052

                     31                     32                     33
                      A                      A                      A
 Frequencies --    971.6322               997.6189              1016.3036
 Red. masses --      1.3406                 1.2560                 2.5909
 Frc consts  --      0.7457                 0.7365                 1.5767
 IR Inten    --      0.7497                 0.1494                 6.1277

                     34                     35                     36
                      A                      A                      A
 Frequencies --   1019.4416              1052.0246              1072.2502
 Red. masses --      2.6385                 2.3894                 1.5040
 Frc consts  --      1.6156                 1.5581                 1.0188
 IR Inten    --      4.4226                 7.1736                 1.5456

                     37                     38                     39
                      A                      A                      A
 Frequencies --   1095.2568              1108.1952              1118.2363
 Red. masses --      2.1748                 1.7570                 1.8339
 Frc consts  --      1.5371                 1.2713                 1.3511
 IR Inten    --      2.6666                 6.6132                40.4307

                     40                     41                     42
                      A                      A                      A
 Frequencies --   1187.3038              1190.8977              1209.7615
 Red. masses --      1.0878                 1.1931                 1.1329
 Frc consts  --      0.9035                 0.9970                 0.9769
 IR Inten    --      0.1850                 7.1224                 0.6287

                     43                     44                     45
                      A                      A                      A
 Frequencies --   1250.2456              1265.2030              1308.8335
 Red. masses --      1.9957                 3.0753                 2.9551
 Frc consts  --      1.8380                 2.9004                 2.9826
 IR Inten    --     57.6975                78.1123                20.7021

                     46                     47                     48
                      A                      A                      A
 Frequencies --   1325.9054              1330.4344              1358.0332
 Red. masses --      2.8861                 2.9595                 1.8341
 Frc consts  --      2.9894                 3.0864                 1.9930
 IR Inten    --      8.9887                 9.1319                 1.7564

                     49                     50                     51
                      A                      A                      A
 Frequencies --   1381.7651              1429.4754              1466.1192
 Red. masses --      2.0676                 1.2745                 2.3870
 Frc consts  --      2.3258                 1.5344                 3.0230
 IR Inten    --     63.4218                 0.4770                59.8365

                     52                     53                     54
                      A                      A                      A
 Frequencies --   1486.4156              1496.5314              1516.9425
 Red. masses --      1.9164                 1.0440                 2.0740
 Frc consts  --      2.4947                 1.3776                 2.8118
 IR Inten    --     13.5338                 6.7496                31.5680

                     55                     56                     57
                      A                      A                      A
 Frequencies --   1521.5978              1539.8569              1624.1679
 Red. masses --      1.5851                 2.3307                 5.1541
 Frc consts  --      2.1622                 3.2561                 8.0106
 IR Inten    --     24.7960                10.1735                 2.7517

                     58                     59                     60
                      A                      A                      A
 Frequencies --   1642.0460              1652.9293              1658.7195
 Red. masses --      5.7214                 5.6186                 5.9910
 Frc consts  --      9.0891                 9.0446                 9.7117
 IR Inten    --     14.5751                14.6524                 7.8116

                     61                     62                     63
                      A                      A                      A
 Frequencies --   3015.2036              3065.6183              3098.5717
 Red. masses --      1.0370                 1.0999                 1.1015
 Frc consts  --      5.5545                 6.0904                 6.2311
 IR Inten    --     35.4935                15.5693                20.0164

                     64                     65                     66
                      A                      A                      A
 Frequencies --   3146.2152              3147.3448              3152.9074
 Red. masses --      1.0872                 1.0866                 1.0878
 Frc consts  --      6.3404                 6.3417                 6.3711
 IR Inten    --      5.5079                 4.3287                 1.1409

                     67                     68                     69
                      A                      A                      A
 Frequencies --   3156.7999              3162.9606              3170.8415
 Red. masses --      1.0901                 1.0913                 1.0945
 Frc consts  --      6.4004                 6.4328                 6.4836
 IR Inten    --     17.3412                 7.8012                21.6972

                     70                     71                     72
                      A                      A                      A
 Frequencies --   3175.9216              3180.6252              3645.6108
 Red. masses --      1.0968                 1.0986                 1.0651
 Frc consts  --      6.5183                 6.5480                 8.3403
 IR Inten    --     24.0108                15.4779               168.5687

 - Thermochemistry -
 -------------------
 Temperature   298.150 Kelvin.  Pressure   1.00000 Atm.
 Atom     1 has atomic number  6 and mass  12.00000

 Molecular mass:   184.08882 amu.
 Principal axes and moments of inertia in atomic units:
                           1         2         3
     Eigenvalues --  1127.808724135.864544926.70501
           X            0.99998   0.00570   0.00030
           Y           -0.00569   0.99991  -0.01195
           Z           -0.00037   0.01195   0.99993
 This molecule is an asymmetric top.
 Rotational symmetry number  1.
 Warning -- assumption of classical behavior for rotation
           may cause significant error
 Rotational temperatures (Kelvin)      0.07680     0.02094     0.01758
 Rotational constants (GHZ):           1.60022     0.43636     0.36632
 Zero-point vibrational energy     558883.4 (Joules/Mol)
                                  133.57633 (Kcal/Mol)
 Warning -- explicit consideration of  18 degrees of freedom as
           vibrations may cause significant error
 Vibrational temperatures:     86.55   110.24   141.75   196.88   253.52
          (Kelvin)            366.80   385.99   418.57   453.54   514.20
                              598.46   664.34   689.79   747.75   811.60
                              814.28   833.88   872.57   914.34   998.04
                             1047.46  1096.04  1118.86  1160.18  1214.54
                             1253.12  1257.03  1316.93  1351.95  1367.51
                             1397.96  1435.35  1462.23  1466.75  1513.63
                             1542.73  1575.83  1594.45  1608.89  1708.27
                             1713.44  1740.58  1798.82  1820.34  1883.12
                             1907.68  1914.20  1953.91  1988.05  2056.70
                             2109.42  2138.62  2153.17  2182.54  2189.24
                             2215.51  2336.82  2362.54  2378.20  2386.53
                             4338.21  4410.74  4458.15  4526.70  4528.33
                             4536.33  4541.93  4550.79  4562.13  4569.44
                             4576.21  5245.22

 Zero-point correction=                           0.212867 (Hartree/Particle)
 Thermal correction to Energy=                    0.224499
 Thermal correction to Enthalpy=                  0.225443
 Thermal correction to Gibbs Free Energy=         0.175092
 Sum of electronic and zero-point Energies=           -577.649628
 Sum of electronic and thermal Energies=              -577.637996
 Sum of electronic and thermal Enthalpies=            -577.637052
 Sum of electronic and thermal Free Energies=         -577.687403

                     E (Thermal)             CV                S
                      KCal/Mol        Cal/Mol-Kelvin    Cal/Mol-Kelvin
 Total                  140.875             46.526            105.973
 Electronic               0.000              0.000              0.000
 Translational            0.889              2.981             41.537
 Rotational               0.889              2.981             31.508
 Vibrational            139.098             40.565             32.928
 Vibration     1          0.597              1.973              4.452
 Vibration     2          0.599              1.965              3.976
 Vibration     3          0.604              1.950              3.483
 Vibration     4          0.614              1.917              2.848
 Vibration     5          0.628              1.872              2.368
 Vibration     6          0.665              1.754              1.696
 Vibration     7          0.673              1.731              1.607
 Vibration     8          0.687              1.691              1.469
 Vibration     9          0.703              1.645              1.335
 Vibration    10          0.733              1.560              1.133
 Vibration    11          0.779              1.436              0.906
 Vibration    12          0.819              1.335              0.761
 Vibration    13          0.836              1.296              0.712
 Vibration    14          0.875              1.206              0.611
 Vibration    15          0.920              1.109              0.516
 Vibration    16          0.922              1.105              0.512
 Vibration    17          0.936              1.075              0.486
 Vibration    18          0.965              1.018              0.439

 Optimization completed.
    -- Stationary point found.
 Normal termination of Gaussian 16 at Thu Nov 18 16:57:48 2021.
