 Gaussian 16, Revision C.01,
 Gaussian 16:  ES64L-G16RevC.01  3-Jul-2019

 ----------------------------------------------------
 # opt freq b3lyp/6-31g(d) scrf=(smd,solvent=toluene)
 ----------------------------------------------------

 ------
 A11PDB
 ------
 Symbolic Z-matrix:
 Charge =  0 Multiplicity = 1

 SCF Done:  E(RB3LYP) =  -543.361458561     A.U. after   12 cycles
 SCF Done:  E(RB3LYP) =  -543.363425260     A.U. after   10 cycles
 SCF Done:  E(RB3LYP) =  -543.363537614     A.U. after    9 cycles
 SCF Done:  E(RB3LYP) =  -543.363513490     A.U. after    9 cycles
 SCF Done:  E(RB3LYP) =  -543.363492971     A.U. after    9 cycles
 SCF Done:  E(RB3LYP) =  -543.363536487     A.U. after    9 cycles
 SCF Done:  E(RB3LYP) =  -543.363537595     A.U. after    8 cycles
 SCF Done:  E(RB3LYP) =  -543.363540385     A.U. after    8 cycles
 SCF Done:  E(RB3LYP) =  -543.363540383     A.U. after    6 cycles
 Optimization completed.
    -- Stationary point found.
 Normal termination of Gaussian 16 at Fri Nov 19 16:23:04 2021.

 --------------------------------------------------------------------
 #N Geom=AllCheck Guess=TCheck SCRF=Check GenChk RB3LYP/6-31G(d) Freq
 --------------------------------------------------------------------

 Structure from the checkpoint file:  "/home/rtong2/g16/111821/A11PDB.chk"
 ------
 A11PDB
 ------
 Charge =  0 Multiplicity = 1

                         Standard orientation:
 ---------------------------------------------------------------------
 Center     Atomic      Atomic             Coordinates (Angstroms)
 Number     Number       Type             X           Y           Z
 ---------------------------------------------------------------------
      1          6           0       -0.344177    1.376910    0.000121
      2          6           0        0.431797    0.211254   -0.000035
      3          6           0       -0.273668   -1.014623   -0.000108
      4          6           0       -1.678062   -1.063535   -0.000097
      5          6           0       -2.393318    0.138022    0.000042
      6          6           0       -1.745735    1.372122    0.000175
      7          1           0        0.154373    2.340260    0.000218
      8          1           0       -3.481030    0.099627    0.000051
      9          8           0        0.450894   -2.184768   -0.000216
     10          1           0       -0.162495   -2.935944   -0.000250
     11          6           0       -2.394616   -2.395228   -0.000251
     12          1           0       -2.154249   -3.000090   -0.887301
     13          1           0       -2.154227   -3.000309    0.886644
     14          1           0       -3.478907   -2.251056   -0.000220
     15          6           0        1.975872    0.264793   -0.000041
     16          6           0        2.533458   -0.428572   -1.267080
     17          1           0        3.630038   -0.381381   -1.269875
     18          1           0        2.238581   -1.478614   -1.319611
     19          1           0        2.175387    0.073489   -2.174340
     20          6           0        2.533442   -0.428110    1.267255
     21          1           0        2.238686   -1.478172    1.320099
     22          1           0        3.630017   -0.380797    1.270111
     23          1           0        2.175250    0.074197    2.174330
     24          6           0        2.504446    1.713302   -0.000306
     25          1           0        2.186404    2.271169   -0.888785
     26          1           0        2.186033    2.271630    0.887751
     27          1           0        3.600552    1.696768   -0.000072
     28          6           0       -2.519430    2.670716    0.000512
     29          1           0       -2.286890    3.281015    0.883070
     30          1           0       -2.284849    3.282687   -0.880331
     31          1           0       -3.599881    2.491367   -0.000881
 ---------------------------------------------------------------------

 SCF Done:  E(RB3LYP) =  -543.363540383     A.U. after    1 cycles

 The electronic state is 1-A.
 Alpha  occ. eigenvalues --  -19.17033 -10.23563 -10.19328 -10.18683 -10.18653
 Alpha  occ. eigenvalues --  -10.18283 -10.17958 -10.17514 -10.17264 -10.17169
 Alpha  occ. eigenvalues --  -10.16255 -10.15736 -10.15734  -1.05019  -0.84705
 Alpha  occ. eigenvalues --   -0.80512  -0.76768  -0.73671  -0.68623  -0.67708
 Alpha  occ. eigenvalues --   -0.66843  -0.66072  -0.60120  -0.57791  -0.53001
 Alpha  occ. eigenvalues --   -0.52642  -0.47777  -0.45013  -0.43008  -0.42981
 Alpha  occ. eigenvalues --   -0.42299  -0.41554  -0.41028  -0.40476  -0.39303
 Alpha  occ. eigenvalues --   -0.39172  -0.38073  -0.37161  -0.36223  -0.36070
 Alpha  occ. eigenvalues --   -0.35547  -0.34760  -0.33543  -0.32123  -0.30788
 Alpha  occ. eigenvalues --   -0.30644  -0.30114  -0.23105  -0.20280
 Alpha virt. eigenvalues --    0.01039   0.02063   0.07299   0.10514   0.11395
 Alpha virt. eigenvalues --    0.13482   0.13871   0.14039   0.15058   0.15978
 Alpha virt. eigenvalues --    0.16497   0.16813   0.18013   0.18353   0.18998

 Mulliken charges:
               1
     1  C   -0.290192
     2  C    0.148504
     3  C    0.193445
     4  C    0.175456
     5  C   -0.283445
     6  C    0.195638
     7  H    0.128583
     8  H    0.123379
     9  O   -0.656475
    10  H    0.423655
    11  C   -0.593704
    12  H    0.169524
    13  H    0.169520
    14  H    0.177895
    15  C    0.041982
    16  C   -0.459079
    17  H    0.134561
    18  H    0.166845
    19  H    0.139688
    20  C   -0.459051
    21  H    0.166813
    22  H    0.134572
    23  H    0.139695
    24  C   -0.463659
    25  H    0.146138
    26  H    0.146143
    27  H    0.142662
    28  C   -0.539779
    29  H    0.162104
    30  H    0.162083
    31  H    0.156500
 Sum of Mulliken charges =  -0.00000

 Dipole moment (field-independent basis, Debye):
    X=             -1.5174    Y=             -1.0151    Z=              0.0003  Tot=              1.8257
 Quadrupole moment (field-independent basis, Debye-Ang):
   XX=            -76.6203   YY=            -71.1209   ZZ=            -82.7701
   XY=              4.0240   XZ=              0.0003   YZ=              0.0015

  Exact polarizability:     183.312      -0.800     172.662      -0.004       0.012      94.822
 Approx polarizability:     223.065      -5.698     226.040      -0.004       0.014     120.741

                      1                      2                      3
                      A                      A                      A
 Frequencies --     40.8116                67.4816                87.8797
 Red. masses --      1.0558                 2.6889                 3.2690
 Frc consts  --      0.0010                 0.0072                 0.0149
 IR Inten    --      0.1802                 0.0508                 0.7890

                      4                      5                      6
                      A                      A                      A
 Frequencies --    143.5876               175.8174               194.1433
 Red. masses --      1.2390                 2.2920                 3.0697
 Frc consts  --      0.0151                 0.0417                 0.0682
 IR Inten    --      4.1515                 0.0000                 1.2996

                      7                      8                      9
                      A                      A                      A
 Frequencies --    198.7151               222.5635               256.8222
 Red. masses --      2.3179                 1.1123                 2.5157
 Frc consts  --      0.0539                 0.0325                 0.0978
 IR Inten    --      3.9119                 1.8016                 0.0139

                     10                     11                     12
                      A                      A                      A
 Frequencies --    261.8509               279.8632               298.6397
 Red. masses --      1.1315                 1.3106                 2.4953
 Frc consts  --      0.0457                 0.0605                 0.1311
 IR Inten    --      0.3732                95.1818                 0.2929

                     13                     14                     15
                      A                      A                      A
 Frequencies --    309.1581               344.0581               355.2482
 Red. masses --      2.2431                 3.3106                 1.0498
 Frc consts  --      0.1263                 0.2309                 0.0781
 IR Inten    --      6.5576                 1.6689                 0.2325

                     16                     17                     18
                      A                      A                      A
 Frequencies --    367.9551               375.4959               414.2507
 Red. masses --      3.6285                 2.9887                 2.5387
 Frc consts  --      0.2894                 0.2483                 0.2567
 IR Inten    --      3.7949                 0.3353                 1.3757

                     19                     20                     21
                      A                      A                      A
 Frequencies --    416.0699               472.2935               520.1825
 Red. masses --      2.9103                 5.3797                 3.4442
 Frc consts  --      0.2968                 0.7070                 0.5491
 IR Inten    --      0.1842                 3.3146                 2.6487

                     22                     23                     24
                      A                      A                      A
 Frequencies --    560.6133               565.9444               603.1319
 Red. masses --      3.6319                 2.9987                 3.5654
 Frc consts  --      0.6725                 0.5659                 0.7642
 IR Inten    --      0.2549                 0.2050                 0.7448

                     25                     26                     27
                      A                      A                      A
 Frequencies --    609.7060               756.3784               775.2400
 Red. masses --      3.7616                 5.9918                 4.5682
 Frc consts  --      0.8239                 2.0197                 1.6176
 IR Inten    --      6.6858                 3.3265                 9.1299

                     28                     29                     30
                      A                      A                      A
 Frequencies --    806.4707               881.7323               913.5458
 Red. masses --      3.8088                 1.2798                 1.3768
 Frc consts  --      1.4595                 0.5862                 0.6770
 IR Inten    --     10.6426                16.2091                 0.7672

                     31                     32                     33
                      A                      A                      A
 Frequencies --    915.0254               941.9028               947.3958
 Red. masses --      2.8018                 1.7412                 1.7806
 Frc consts  --      1.3821                 0.9102                 0.9416
 IR Inten    --      8.5745                 1.2706                 5.4926

                     34                     35                     36
                      A                      A                      A
 Frequencies --    976.6577               981.8214              1032.0482
 Red. masses --      1.1957                 4.2328                 1.4828
 Frc consts  --      0.6720                 2.4041                 0.9305
 IR Inten    --      0.1859                 3.8622                 0.6531

                     37                     38                     39
                      A                      A                      A
 Frequencies --   1043.4795              1061.0637              1065.7686
 Red. masses --      1.4551                 1.4014                 1.3810
 Frc consts  --      0.9335                 0.9296                 0.9242
 IR Inten    --     10.9214                 5.1598                 0.2685

                     40                     41                     42
                      A                      A                      A
 Frequencies --   1072.2538              1077.5115              1173.0466
 Red. masses --      1.4611                 1.4780                 2.1505
 Frc consts  --      0.9898                 1.0111                 1.7435
 IR Inten    --      2.9504                 3.8874                 5.5148

                     43                     44                     45
                      A                      A                      A
 Frequencies --   1214.3659              1236.3390              1238.9123
 Red. masses --      1.8557                 2.6491                 2.5656
 Frc consts  --      1.6123                 2.3857                 2.3201
 IR Inten    --    138.9877                 5.8301                22.9914

                     46                     47                     48
                      A                      A                      A
 Frequencies --   1264.7909              1286.7710              1315.9767
 Red. masses --      1.9999                 2.6800                 1.8524
 Frc consts  --      1.8849                 2.6145                 1.8900
 IR Inten    --     73.3770                42.3689                27.8914

                     49                     50                     51
                      A                      A                      A
 Frequencies --   1333.7222              1378.2207              1422.3289
 Red. masses --      5.7031                 2.2003                 1.2144
 Frc consts  --      5.9771                 2.4625                 1.4475
 IR Inten    --     11.1845                30.4400                 6.4436

                     52                     53                     54
                      A                      A                      A
 Frequencies --   1426.4332              1444.4420              1445.6962
 Red. masses --      1.2314                 1.2402                 1.2800
 Frc consts  --      1.4762                 1.5246                 1.5762
 IR Inten    --      4.2859                 0.9985                 8.3901

                     55                     56                     57
                      A                      A                      A
 Frequencies --   1453.0168              1466.2380              1490.1843
 Red. masses --      1.2655                 2.7347                 1.9775
 Frc consts  --      1.5742                 3.4639                 2.5872
 IR Inten    --     12.0177                12.8847                94.2057

                     58                     59                     60
                      A                      A                      A
 Frequencies --   1508.9715              1511.4618              1519.1365
 Red. masses --      1.0482                 1.0441                 1.0409
 Frc consts  --      1.4063                 1.4053                 1.4153
 IR Inten    --      0.4007                 5.4117                 9.1655

                     61                     62                     63
                      A                      A                      A
 Frequencies --   1523.0216              1524.7706              1524.9919
 Red. masses --      1.0509                 1.1035                 1.0461
 Frc consts  --      1.4363                 1.5116                 1.4334
 IR Inten    --      3.2806                10.6829                 0.2528

                     64                     65                     66
                      A                      A                      A
 Frequencies --   1530.5571              1538.1044              1544.3835
 Red. masses --      1.0927                 1.0507                 1.4178
 Frc consts  --      1.5082                 1.4646                 1.9923
 IR Inten    --      4.2610                 4.1041                31.2916

                     67                     68                     69
                      A                      A                      A
 Frequencies --   1553.0770              1649.6610              1664.6889
 Red. masses --      1.0633                 5.8851                 5.4871
 Frc consts  --      1.5111                 9.4361                 8.9590
 IR Inten    --      5.1927                 7.9663                 1.4025

                     70                     71                     72
                      A                      A                      A
 Frequencies --   3017.3358              3038.3010              3042.0214
 Red. masses --      1.0422                 1.0380                 1.0368
 Frc consts  --      5.5906                 5.6454                 5.6531
 IR Inten    --     42.2663                53.1617                21.7430

                     73                     74                     75
                      A                      A                      A
 Frequencies --   3042.3565              3050.5067              3060.5406
 Red. masses --      1.0399                 1.0393                 1.1014
 Frc consts  --      5.6708                 5.6982                 6.0783
 IR Inten    --     44.7165                54.0770                25.6945

                     76                     77                     78
                      A                      A                      A
 Frequencies --   3087.2998              3099.4850              3100.8116
 Red. masses --      1.1013                 1.1022                 1.1018
 Frc consts  --      6.1846                 6.2385                 6.2415
 IR Inten    --     27.3042                19.7351                25.7547

                     79                     80                     81
                      A                      A                      A
 Frequencies --   3111.5450              3113.4302              3118.9241
 Red. masses --      1.1014                 1.1027                 1.1006
 Frc consts  --      6.2826                 6.2976                 6.3078
 IR Inten    --    102.0704                50.0456                23.5891

                     82                     83                     84
                      A                      A                      A
 Frequencies --   3129.0585              3155.9301              3158.1802
 Red. masses --      1.0950                 1.0975                 1.0968
 Frc consts  --      6.3169                 6.4406                 6.4457
 IR Inten    --     12.9778                 0.1224                30.0241

                     85                     86                     87
                      A                      A                      A
 Frequencies --   3173.0604              3214.5909              3746.4452
 Red. masses --      1.0902                 1.0882                 1.0653
 Frc consts  --      6.4671                 6.6253                 8.8099
 IR Inten    --     27.1983                12.0474                87.3628

 - Thermochemistry -
 -------------------
 Temperature   298.150 Kelvin.  Pressure   1.00000 Atm.
 Atom     1 has atomic number  6 and mass  12.00000

 Molecular mass:   178.13577 amu.
 Principal axes and moments of inertia in atomic units:
                           1         2         3
     Eigenvalues --  1736.201212692.132524002.86277
           X            0.99987   0.01603   0.00003
           Y           -0.01603   0.99987  -0.00013
           Z           -0.00004   0.00013   1.00000
 This molecule is an asymmetric top.
 Rotational symmetry number  1.
 Warning -- assumption of classical behavior for rotation
           may cause significant error
 Rotational temperatures (Kelvin)      0.04989     0.03217     0.02164
 Rotational constants (GHZ):           1.03948     0.67038     0.45086
 Zero-point vibrational energy     717961.0 (Joules/Mol)
                                  171.59681 (Kcal/Mol)
 Warning -- explicit consideration of  25 degrees of freedom as
           vibrations may cause significant error
 Vibrational temperatures:     58.72    97.09   126.44   206.59   252.96
          (Kelvin)            279.33   285.91   320.22   369.51   376.75
                              402.66   429.68   444.81   495.02   511.12
                              529.41   540.25   596.01   598.63   679.52
                              748.43   806.60   814.27   867.77   877.23
                             1088.26  1115.40  1160.33  1268.62  1314.39
                             1316.52  1355.19  1363.09  1405.19  1412.62
                             1484.89  1501.33  1526.63  1533.40  1542.73
                             1550.30  1687.75  1747.20  1778.82  1782.52
                             1819.75  1851.38  1893.40  1918.93  1982.95
                             2046.41  2052.32  2078.23  2080.03  2090.57
                             2109.59  2144.04  2171.07  2174.66  2185.70
                             2191.29  2193.80  2194.12  2202.13  2212.99
                             2222.02  2234.53  2373.49  2395.12  4341.27
                             4371.44  4376.79  4377.27  4389.00  4403.44
                             4441.94  4459.47  4461.38  4476.82  4479.53
                             4487.44  4502.02  4540.68  4543.92  4565.33
                             4625.08  5390.30

 Zero-point correction=                           0.273457 (Hartree/Particle)
 Thermal correction to Energy=                    0.287927
 Thermal correction to Enthalpy=                  0.288871
 Thermal correction to Gibbs Free Energy=         0.233290
 Sum of electronic and zero-point Energies=           -543.090083
 Sum of electronic and thermal Energies=              -543.075614
 Sum of electronic and thermal Enthalpies=            -543.074669
 Sum of electronic and thermal Free Energies=         -543.130250

                     E (Thermal)             CV                S
                      KCal/Mol        Cal/Mol-Kelvin    Cal/Mol-Kelvin
 Total                  180.677             55.565            116.979
 Electronic               0.000              0.000              0.000
 Translational            0.889              2.981             41.439
 Rotational               0.889              2.981             31.304
 Vibrational            178.899             49.604             44.236
 Vibration     1          0.594              1.981              5.219
 Vibration     2          0.598              1.970              4.226
 Vibration     3          0.601              1.958              3.707
 Vibration     4          0.616              1.910              2.756
 Vibration     5          0.628              1.872              2.372
 Vibration     6          0.635              1.848              2.188
 Vibration     7          0.637              1.842              2.145
 Vibration     8          0.648              1.807              1.938
 Vibration     9          0.666              1.751              1.683
 Vibration    10          0.669              1.743              1.649
 Vibration    11          0.680              1.711              1.535
 Vibration    12          0.692              1.676              1.425
 Vibration    13          0.699              1.656              1.367
 Vibration    14          0.723              1.587              1.193
 Vibration    15          0.731              1.564              1.143
 Vibration    16          0.741              1.538              1.088
 Vibration    17          0.746              1.522              1.057
 Vibration    18          0.778              1.439              0.912
 Vibration    19          0.779              1.435              0.905
 Vibration    20          0.829              1.312              0.731
 Vibration    21          0.875              1.205              0.610
 Vibration    22          0.916              1.117              0.523
 Vibration    23          0.922              1.105              0.512
 Vibration    24          0.962              1.025              0.444
 Vibration    25          0.969              1.011              0.433

                           ! Non-Optimized Parameters !
 Normal termination of Gaussian 16 at Fri Nov 19 16:27:25 2021.
