 Gaussian 16, Revision C.01,
 Gaussian 16:  ES64L-G16RevC.01  3-Jul-2019

 ----------------------------------------------------
 # opt freq b3lyp/6-31g(d) scrf=(smd,solvent=toluene)
 ----------------------------------------------------

 ------------
 cumylcumylbz
 ------------
 Symbolic Z-matrix:
 Charge =  0 Multiplicity = 1

 SCF Done:  E(RB3LYP) =  -1044.72816010     A.U. after   12 cycles
 SCF Done:  E(RB3LYP) =  -1044.75627543     A.U. after   11 cycles
 SCF Done:  E(RB3LYP) =  -1044.76495211     A.U. after   11 cycles
 SCF Done:  E(RB3LYP) =  -1044.77036747     A.U. after   11 cycles
 SCF Done:  E(RB3LYP) =  -1044.77539114     A.U. after   12 cycles
 SCF Done:  E(RB3LYP) =  -1044.77687348     A.U. after   12 cycles
 SCF Done:  E(RB3LYP) =  -1044.77890468     A.U. after   11 cycles
 SCF Done:  E(RB3LYP) =  -1044.77852851     A.U. after   11 cycles
 SCF Done:  E(RB3LYP) =  -1044.77933252     A.U. after   11 cycles
 SCF Done:  E(RB3LYP) =  -1044.77985609     A.U. after   10 cycles
 SCF Done:  E(RB3LYP) =  -1044.77989100     A.U. after    9 cycles
 SCF Done:  E(RB3LYP) =  -1044.77990302     A.U. after    9 cycles
 SCF Done:  E(RB3LYP) =  -1044.77991377     A.U. after    8 cycles
 SCF Done:  E(RB3LYP) =  -1044.77991505     A.U. after    8 cycles
 SCF Done:  E(RB3LYP) =  -1044.77991515     A.U. after    7 cycles
 SCF Done:  E(RB3LYP) =  -1044.77991527     A.U. after    7 cycles
 SCF Done:  E(RB3LYP) =  -1044.77991526     A.U. after    6 cycles
 Optimization completed.
    -- Stationary point found.
 Normal termination of Gaussian 16 at Thu Sep 23 13:54:30 2021.

 --------------------------------------------------------------------
 #N Geom=AllCheck Guess=TCheck SCRF=Check GenChk RB3LYP/6-31G(d) Freq
 --------------------------------------------------------------------

 Structure from the checkpoint file:  "cumylcumylbz.chk"
 ------------
 cumylcumylbz
 ------------
 Charge =  0 Multiplicity = 1

                         Standard orientation:
 ---------------------------------------------------------------------
 Center     Atomic      Atomic             Coordinates (Angstroms)
 Number     Number       Type             X           Y           Z
 ---------------------------------------------------------------------
      1          6           0       -0.526510    0.440305    0.692755
      2          6           0        0.853045    0.642840    0.583628
      3          6           0        1.287721    1.725233   -0.215745
      4          6           0        0.371825    2.578618   -0.848716
      5          6           0       -0.996680    2.336375   -0.689701
      6          6           0       -1.474701    1.265840    0.070229
      7          1           0       -0.887480   -0.396078    1.280090
      8          1           0       -1.687964    3.007071   -1.190287
      9          6           0        0.875145    3.726009   -1.688551
     10          1           0        1.456997    4.439857   -1.091882
     11          1           0        1.540220    3.376354   -2.487536
     12          1           0        0.042444    4.268481   -2.147813
     13          8           0        2.611749    2.027556   -0.410823
     14          1           0        3.153304    1.239212   -0.229370
     15          6           0        1.871272   -0.230208    1.353392
     16          6           0        2.495589    0.641971    2.471296
     17          1           0        3.174634    0.059334    3.104064
     18          1           0        3.043723    1.502032    2.074942
     19          1           0        1.697168    1.027509    3.113474
     20          6           0        1.203981   -1.443704    2.044728
     21          1           0        0.679989   -2.089268    1.332959
     22          1           0        1.973959   -2.047264    2.537376
     23          1           0        0.490642   -1.124679    2.812629
     24          6           0        2.929884   -0.805486    0.382400
     25          6           0        4.308618   -0.769527    0.646829
     26          6           0        2.506123   -1.443775   -0.798552
     27          6           0        5.228374   -1.349444   -0.234461
     28          1           0        4.680965   -0.287818    1.544901
     29          6           0        3.419970   -2.025603   -1.673795
     30          1           0        1.445717   -1.476485   -1.033293
     31          6           0        4.789151   -1.981486   -1.395289
     32          1           0        6.289851   -1.303258   -0.004912
     33          1           0        3.062912   -2.511508   -2.578213
     34          1           0        5.503206   -2.431046   -2.080058
     35          6           0       -2.977487    0.987354    0.289104
     36          6           0       -3.875104    1.873437   -0.607347
     37          1           0       -3.659949    1.735612   -1.671985
     38          1           0       -4.927121    1.614436   -0.445584
     39          1           0       -3.754802    2.936167   -0.367426
     40          6           0       -3.315565    1.332096    1.758840
     41          1           0       -2.765797    0.704061    2.467653
     42          1           0       -3.044194    2.373758    1.961200
     43          1           0       -4.387258    1.223203    1.963134
     44          6           0       -3.290172   -0.485124   -0.055052
     45          6           0       -3.984368   -1.341483    0.809599
     46          6           0       -2.904195   -0.996020   -1.307077
     47          6           0       -4.283298   -2.657464    0.439957
     48          1           0       -4.300961   -0.992610    1.786861
     49          6           0       -3.203093   -2.304163   -1.681268
     50          1           0       -2.351520   -0.359951   -1.993549
     51          6           0       -3.896662   -3.145249   -0.806332
     52          1           0       -4.820531   -3.298710    1.134612
     53          1           0       -2.890804   -2.669443   -2.656678
     54          1           0       -4.128509   -4.167481   -1.093950
 ---------------------------------------------------------------------

 SCF Done:  E(RB3LYP) =  -1044.77991526     A.U. after    1 cycles

 The electronic state is 1-A.
 Alpha  occ. eigenvalues --  -19.16096 -10.23216 -10.21039 -10.20159 -10.19843
 Alpha  occ. eigenvalues --  -10.19055 -10.18998 -10.18952 -10.18874 -10.18814
 Alpha  occ. eigenvalues --  -10.18700 -10.18568 -10.18215 -10.18195 -10.18077
 Alpha  occ. eigenvalues --  -10.18074 -10.17948 -10.17839 -10.17827 -10.17325
 Alpha  occ. eigenvalues --  -10.17305 -10.17221 -10.17188 -10.16893 -10.16834
 Alpha  occ. eigenvalues --  -10.16826  -1.04203  -0.86235  -0.85525  -0.84034
 Alpha  occ. eigenvalues --   -0.81180  -0.79703  -0.75203  -0.74361  -0.73576
 Alpha  occ. eigenvalues --   -0.73226  -0.72424  -0.70877  -0.68529  -0.67967
 Alpha  occ. eigenvalues --   -0.66590  -0.63085  -0.61767  -0.60073  -0.59420
 Alpha  occ. eigenvalues --   -0.59086  -0.57743  -0.54861  -0.54056  -0.52590
 Alpha  occ. eigenvalues --   -0.50543  -0.50030  -0.47773  -0.46474  -0.45301
 Alpha  occ. eigenvalues --   -0.44954  -0.44396  -0.44053  -0.43497  -0.43359
 Alpha  occ. eigenvalues --   -0.42986  -0.42052  -0.41762  -0.41051  -0.40482
 Alpha  occ. eigenvalues --   -0.39837  -0.39275  -0.38746  -0.38585  -0.37941
 Alpha  occ. eigenvalues --   -0.37162  -0.36951  -0.36672  -0.36320  -0.36161
 Alpha  occ. eigenvalues --   -0.35963  -0.35643  -0.35116  -0.34765  -0.34185
 Alpha  occ. eigenvalues --   -0.33323  -0.33207  -0.32598  -0.31941  -0.31017
 Alpha  occ. eigenvalues --   -0.30481  -0.30239  -0.25176  -0.24671  -0.24288
 Alpha  occ. eigenvalues --   -0.23740  -0.22819  -0.20106
 Alpha virt. eigenvalues --   -0.00642  -0.00448   0.00417   0.00513   0.01445
 Alpha virt. eigenvalues --    0.02139   0.09325   0.09942   0.10618   0.11159
 Alpha virt. eigenvalues --    0.12446   0.13151   0.13476   0.13947   0.14288

 Mulliken charges:
               1
     1  C   -0.299911
     2  C    0.142344
     3  C    0.204644
     4  C    0.148191
     5  C   -0.297578
     6  C    0.185275
     7  H    0.138230
     8  H    0.127393
     9  C   -0.521536
    10  H    0.165668
    11  H    0.165740
    12  H    0.150180
    13  O   -0.668224
    14  H    0.422821
    15  C   -0.039298
    16  C   -0.469367
    17  H    0.150502
    18  H    0.155650
    19  H    0.158455
    20  C   -0.461232
    21  H    0.162901
    22  H    0.153321
    23  H    0.154008
    24  C    0.064171
    25  C   -0.200864
    26  C   -0.170630
    27  C   -0.136120
    28  H    0.148418
    29  C   -0.140846
    30  H    0.154876
    31  C   -0.139709
    32  H    0.145858
    33  H    0.146691
    34  H    0.145352
    35  C   -0.044900
    36  C   -0.463182
    37  H    0.153762
    38  H    0.151951
    39  H    0.149812
    40  C   -0.464078
    41  H    0.151468
    42  H    0.152891
    43  H    0.147406
    44  C    0.162614
    45  C   -0.211107
    46  C   -0.190519
    47  C   -0.143729
    48  H    0.136819
    49  C   -0.146238
    50  H    0.141510
    51  C   -0.144032
    52  H    0.137807
    53  H    0.138477
    54  H    0.137896
 Sum of Mulliken charges =  -0.00000

 Dipole moment (field-independent basis, Debye):
    X=              0.6998    Y=             -1.5151    Z=              0.5569  Tot=              1.7594
 Quadrupole moment (field-independent basis, Debye-Ang):
   XX=           -145.0457   YY=           -153.9706   ZZ=           -147.6320
   XY=             -5.2822   XZ=             -1.1878   YZ=              2.1449

  Exact polarizability:     343.906       7.192     295.321     -22.710       5.216     265.841
 Approx polarizability:     428.658      19.740     380.646     -30.780       4.767     373.944

                      1                      2                      3
                      A                      A                      A
 Frequencies --     19.0857                25.0702                39.8757
 Red. masses --      4.0513                 5.1071                 3.7820
 Frc consts  --      0.0009                 0.0019                 0.0035
 IR Inten    --      0.0447                 0.1950                 0.0168

                      4                      5                      6
                      A                      A                      A
 Frequencies --     52.6921                60.7309                62.8564
 Red. masses --      3.8102                 4.1836                 4.4983
 Frc consts  --      0.0062                 0.0091                 0.0105
 IR Inten    --      0.1177                 0.0563                 0.2390

                      7                      8                      9
                      A                      A                      A
 Frequencies --    107.0200               123.3124               138.1785
 Red. masses --      3.3813                 3.4708                 1.2648
 Frc consts  --      0.0228                 0.0311                 0.0142
 IR Inten    --      0.2262                 0.6582                 0.0921

                     10                     11                     12
                      A                      A                      A
 Frequencies --    149.6046               184.0007               197.9860
 Red. masses --      2.9064                 3.8624                 3.3089
 Frc consts  --      0.0383                 0.0770                 0.0764
 IR Inten    --      0.2684                 1.9234                 0.0567

                     13                     14                     15
                      A                      A                      A
 Frequencies --    212.7045               226.6528               253.8734
 Red. masses --      3.2759                 2.9191                 3.3131
 Frc consts  --      0.0873                 0.0884                 0.1258
 IR Inten    --      2.6605                 0.6234                 0.1157

                     16                     17                     18
                      A                      A                      A
 Frequencies --    260.6180               270.1726               299.3449
 Red. masses --      3.2145                 3.6909                 1.4007
 Frc consts  --      0.1286                 0.1587                 0.0740
 IR Inten    --      1.0534                 0.1372                 0.3646

                     19                     20                     21
                      A                      A                      A
 Frequencies --    303.8369               305.2020               315.0714
 Red. masses --      2.2649                 1.4465                 2.4420
 Frc consts  --      0.1232                 0.0794                 0.1428
 IR Inten    --      0.0488                 0.2217                 2.4721

                     22                     23                     24
                      A                      A                      A
 Frequencies --    318.4511               332.8715               338.8871
 Red. masses --      3.3569                 2.4776                 1.0821
 Frc consts  --      0.2006                 0.1617                 0.0732
 IR Inten    --      2.1923                 4.6631                 0.0535

                     25                     26                     27
                      A                      A                      A
 Frequencies --    342.5217               349.8780               359.2333
 Red. masses --      2.1308                 1.1033                 2.8605
 Frc consts  --      0.1473                 0.0796                 0.2175
 IR Inten    --      3.5878                 0.3005                 0.7058

                     28                     29                     30
                      A                      A                      A
 Frequencies --    387.9371               409.1534               416.9719
 Red. masses --      4.3341                 3.3362                 2.8419
 Frc consts  --      0.3843                 0.3291                 0.2911
 IR Inten    --      0.7259                 2.5680                 1.5575

                     31                     32                     33
                      A                      A                      A
 Frequencies --    417.4866               434.0669               459.3802
 Red. masses --      2.9666                 3.1341                 1.1800
 Frc consts  --      0.3046                 0.3479                 0.1467
 IR Inten    --      0.2147                 4.3471                73.8593

                     34                     35                     36
                      A                      A                      A
 Frequencies --    483.2717               497.8265               524.6596
 Red. masses --      3.3205                 3.5900                 3.9277
 Frc consts  --      0.4569                 0.5242                 0.6370
 IR Inten    --      0.4214                 0.7169                 3.4594

                     37                     38                     39
                      A                      A                      A
 Frequencies --    550.8620               564.1668               583.8119
 Red. masses --      3.7370                 3.8611                 3.6284
 Frc consts  --      0.6681                 0.7241                 0.7286
 IR Inten    --      5.4540                 4.4733                17.8113

                     40                     41                     42
                      A                      A                      A
 Frequencies --    595.7600               623.5649               633.3143
 Red. masses --      3.8369                 3.7140                 5.4937
 Frc consts  --      0.8024                 0.8508                 1.2982
 IR Inten    --      8.6426                 9.5409                 0.9224

                     43                     44                     45
                      A                      A                      A
 Frequencies --    634.3870               638.7982               671.1711
 Red. masses --      6.1991                 4.1287                 4.0837
 Frc consts  --      1.4699                 0.9926                 1.0839
 IR Inten    --      0.2437                 1.1141                 2.8884

                     46                     47                     48
                      A                      A                      A
 Frequencies --    717.1013               719.0514               720.0273
 Red. masses --      2.0379                 3.4839                 1.7403
 Frc consts  --      0.6174                 1.0613                 0.5316
 IR Inten    --     39.8969                 2.3745                40.8781

                     49                     50                     51
                      A                      A                      A
 Frequencies --    757.8561               767.8856               783.0782
 Red. masses --      3.9187                 3.9880                 2.1507
 Frc consts  --      1.3261                 1.3855                 0.7770
 IR Inten    --      5.9118                 3.4873                18.3441

                     52                     53                     54
                      A                      A                      A
 Frequencies --    786.4680               799.3575               861.2965
 Red. masses --      2.0672                 3.2127                 1.2495
 Frc consts  --      0.7534                 1.2095                 0.5461
 IR Inten    --     13.5942                22.8682                 0.3295

                     55                     56                     57
                      A                      A                      A
 Frequencies --    868.2126               879.9845               898.2245
 Red. masses --      1.2479                 3.4146                 1.6743
 Frc consts  --      0.5542                 1.5579                 0.7959
 IR Inten    --      0.0382                 1.4103                10.9422

                     58                     59                     60
                      A                      A                      A
 Frequencies --    913.9418               921.3902               930.5495
 Red. masses --      1.4333                 1.7434                 1.6983
 Frc consts  --      0.7054                 0.8720                 0.8665
 IR Inten    --      0.2377                 7.3694                 5.1753

                     61                     62                     63
                      A                      A                      A
 Frequencies --    937.1394               954.0712               956.0159
 Red. masses --      1.5433                 1.5880                 1.5561
 Frc consts  --      0.7986                 0.8517                 0.8379
 IR Inten    --      0.5382                 0.6742                 1.9625

                     64                     65                     66
                      A                      A                      A
 Frequencies --    965.5790               970.3511               972.6763
 Red. masses --      2.2643                 2.2654                 1.3634
 Frc consts  --      1.2439                 1.2568                 0.7600
 IR Inten    --      6.2370                 3.4334                 0.1978

                     67                     68                     69
                      A                      A                      A
 Frequencies --    982.0161               995.7542              1004.4270
 Red. masses --      1.3529                 1.2470                 1.2582
 Frc consts  --      0.7687                 0.7285                 0.7479
 IR Inten    --      0.0934                 0.8757                 0.6702

                     70                     71                     72
                      A                      A                      A
 Frequencies --   1016.1036              1016.7432              1035.0596
 Red. masses --      5.8458                 5.9072                 1.4924
 Frc consts  --      3.5560                 3.5980                 0.9420
 IR Inten    --      1.3147                 1.0742                14.3654

                     73                     74                     75
                      A                      A                      A
 Frequencies --   1040.4370              1042.5736              1057.9371
 Red. masses --      1.3167                 1.3209                 2.5450
 Frc consts  --      0.8398                 0.8459                 1.6782
 IR Inten    --      2.7051                 5.1605                10.4354

                     76                     77                     78
                      A                      A                      A
 Frequencies --   1058.5400              1075.0624              1106.6908
 Red. masses --      2.5536                 1.4789                 1.7616
 Frc consts  --      1.6858                 1.0071                 1.2712
 IR Inten    --     10.5040                 2.3357                 4.1530

                     79                     80                     81
                      A                      A                      A
 Frequencies --   1108.1713              1125.7243              1127.5127
 Red. masses --      1.7315                 2.0489                 2.0269
 Frc consts  --      1.2528                 1.5298                 1.5182
 IR Inten    --      4.0663                 6.5909                 4.8600

                     82                     83                     84
                      A                      A                      A
 Frequencies --   1151.6204              1167.6489              1178.0694
 Red. masses --      2.0908                 2.6165                 2.4787
 Frc consts  --      1.6338                 2.1018                 2.0268
 IR Inten    --     14.3546                24.9019                12.2025

                     85                     86                     87
                      A                      A                      A
 Frequencies --   1181.5281              1188.7380              1190.7919
 Red. masses --      2.3442                 1.0876                 1.0893
 Frc consts  --      1.9281                 0.9055                 0.9100
 IR Inten    --     16.8499                 0.0468                 0.0740

                     88                     89                     90
                      A                      A                      A
 Frequencies --   1217.1107              1218.5160              1231.8010
 Red. masses --      1.1422                 1.1388                 2.3738
 Frc consts  --      0.9969                 0.9962                 2.1221
 IR Inten    --      2.8425                 1.3851                46.5967

                     91                     92                     93
                      A                      A                      A
 Frequencies --   1251.2693              1255.6362              1259.8447
 Red. masses --      2.6894                 2.2740                 3.0532
 Frc consts  --      2.4809                 2.1124                 2.8552
 IR Inten    --     62.6139                20.8647                41.7510

                     94                     95                     96
                      A                      A                      A
 Frequencies --   1284.9821              1312.1740              1325.9610
 Red. masses --      2.5182                 3.5658                 2.5597
 Frc consts  --      2.4498                 3.6174                 2.6515
 IR Inten    --      8.0457                70.2217                26.9514

                     97                     98                     99
                      A                      A                      A
 Frequencies --   1339.7679              1343.1422              1369.4643
 Red. masses --      3.8942                 3.9289                 1.6329
 Frc consts  --      4.1184                 4.1760                 1.8043
 IR Inten    --      1.8252                 5.7092                 0.1396

                    100                    101                    102
                      A                      A                      A
 Frequencies --   1369.9566              1378.3337              1424.8480
 Red. masses --      1.6094                 2.0498                 1.2270
 Frc consts  --      1.7796                 2.2944                 1.4677
 IR Inten    --      0.3217                14.9614                 6.4914

                    103                    104                    105
                      A                      A                      A
 Frequencies --   1427.2644              1444.5678              1446.0606
 Red. masses --      1.2118                 1.2628                 1.2276
 Frc consts  --      1.4544                 1.5526                 1.5125
 IR Inten    --      5.6332                 0.8855                 1.5865

                    106                    107                    108
                      A                      A                      A
 Frequencies --   1447.9009              1465.2463              1489.4436
 Red. masses --      1.2202                 3.2070                 2.1979
 Frc consts  --      1.5071                 4.0566                 2.8728
 IR Inten    --      4.9808                 1.7531                36.5699

                    109                    110                    111
                      A                      A                      A
 Frequencies --   1490.2091              1492.4256              1505.2329
 Red. masses --      2.1895                 2.1405                 1.0475
 Frc consts  --      2.8647                 2.8090                 1.3984
 IR Inten    --     17.6987                66.4296                 6.3094

                    112                    113                    114
                      A                      A                      A
 Frequencies --   1514.2853              1516.5389              1522.1469
 Red. masses --      1.0630                 1.0580                 1.0757
 Frc consts  --      1.4361                 1.4337                 1.4684
 IR Inten    --      0.9953                 1.6779                 3.1402

                    115                    116                    117
                      A                      A                      A
 Frequencies --   1523.9245              1532.6927              1534.7871
 Red. masses --      1.0760                 1.1907                 1.0600
 Frc consts  --      1.4723                 1.6480                 1.4711
 IR Inten    --     10.8871                25.8223                 5.0519

                    118                    119                    120
                      A                      A                      A
 Frequencies --   1535.5864              1537.6591              1538.9170
 Red. masses --      1.1148                 1.1892                 1.1607
 Frc consts  --      1.5488                 1.6567                 1.6196
 IR Inten    --     25.7048                17.7294                12.7016

                    121                    122                    123
                      A                      A                      A
 Frequencies --   1542.9386              1544.3121              1635.4884
 Red. masses --      1.5868                 2.0395                 5.2675
 Frc consts  --      2.2257                 2.8657                 8.3014
 IR Inten    --     21.2176                19.0016                 1.6484

                    124                    125                    126
                      A                      A                      A
 Frequencies --   1638.2963              1645.4079              1654.7346
 Red. masses --      5.3898                 5.9619                 5.3766
 Frc consts  --      8.5233                 9.5100                 8.6738
 IR Inten    --      1.7861                 0.3087                 1.1841

                    127                    128                    129
                      A                      A                      A
 Frequencies --   1659.4676              1660.8755              3046.2074
 Red. masses --      5.4949                 5.5103                 1.0368
 Frc consts  --      8.9156                 8.9557                 5.6686
 IR Inten    --      8.9620                 7.0398                46.6875

                    130                    131                    132
                      A                      A                      A
 Frequencies --   3048.5877              3053.5600              3054.1987
 Red. masses --      1.0354                 1.0354                 1.0362
 Frc consts  --      5.6698                 5.6883                 5.6949
 IR Inten    --     22.1146                21.4701                30.6562

                    133                    134                    135
                      A                      A                      A
 Frequencies --   3058.9733              3097.0211              3114.6124
 Red. masses --      1.0366                 1.1004                 1.1020
 Frc consts  --      5.7148                 6.2184                 6.2986
 IR Inten    --     30.7203                19.7398                 4.6567

                    136                    137                    138
                      A                      A                      A
 Frequencies --   3119.3470              3119.6849              3124.7930
 Red. masses --      1.1023                 1.1016                 1.1014
 Frc consts  --      6.3193                 6.3170                 6.3362
 IR Inten    --      1.8974                89.8923                77.2016

                    139                    140                    141
                      A                      A                      A
 Frequencies --   3125.4915              3126.2085              3127.8798
 Red. masses --      1.1025                 1.1030                 1.1025
 Frc consts  --      6.3455                 6.3511                 6.3552
 IR Inten    --     23.7633                31.1645                38.2640

                    142                    143                    144
                      A                      A                      A
 Frequencies --   3132.6720              3136.9563              3178.9563
 Red. masses --      1.1031                 1.1027                 1.0848
 Frc consts  --      6.3780                 6.3931                 6.4593
 IR Inten    --     26.3906                23.0340                 2.6756

                    145                    146                    147
                      A                      A                      A
 Frequencies --   3185.4640              3186.2187              3192.7338
 Red. masses --      1.0853                 1.0882                 1.0884
 Frc consts  --      6.4883                 6.5090                 6.5369
 IR Inten    --      1.3368                 8.0188                 7.2189

                    148                    149                    150
                      A                      A                      A
 Frequencies --   3196.8170              3202.6764              3206.1203
 Red. masses --      1.0922                 1.0923                 1.0893
 Frc consts  --      6.5766                 6.6014                 6.5969
 IR Inten    --     37.3265                26.4904                20.7287

                    151                    152                    153
                      A                      A                      A
 Frequencies --   3206.2962              3211.2383              3218.6197
 Red. masses --      1.0958                 1.0961                 1.0923
 Frc consts  --      6.6373                 6.6597                 6.6669
 IR Inten    --     29.6841                29.2180                15.2723

                    154                    155                    156
                      A                      A                      A
 Frequencies --   3221.5021              3222.1537              3663.8908
 Red. masses --      1.0924                 1.0881                 1.0656
 Frc consts  --      6.6798                 6.6561                 8.4283
 IR Inten    --     15.4918                 6.5119               404.9859

 - Thermochemistry -
 -------------------
 Temperature   298.150 Kelvin.  Pressure   1.00000 Atm.
 Atom     1 has atomic number  6 and mass  12.00000

 Molecular mass:   344.21402 amu.
 Principal axes and moments of inertia in atomic units:
                           1         2         3
     Eigenvalues --  5905.68901********************
           X            0.99997  -0.00757   0.00069
           Y            0.00758   0.99990  -0.01176
           Z           -0.00060   0.01176   0.99993
 This molecule is an asymmetric top.
 Rotational symmetry number  1.
 Warning -- assumption of classical behavior for rotation
           may cause significant error
 Rotational temperatures (Kelvin)      0.01467     0.00666     0.00564
 Rotational constants (GHZ):           0.30559     0.13871     0.11749
 Zero-point vibrational energy    1221481.9 (Joules/Mol)
                                  291.94118 (Kcal/Mol)
 Warning -- explicit consideration of  40 degrees of freedom as
           vibrations may cause significant error
 Vibrational temperatures:     27.46    36.07    57.37    75.81    87.38
          (Kelvin)             90.44   153.98   177.42   198.81   215.25
                              264.74   284.86   306.03   326.10   365.27
                              374.97   388.72   430.69   437.15   439.12
                              453.32   458.18   478.93   487.58   492.81
                              503.40   516.86   558.16   588.68   599.93
                              600.67   624.53   660.95   695.32   716.26
                              754.87   792.57   811.71   839.98   857.17
                              897.17   911.20   912.74   919.09   965.67
                             1031.75  1034.55  1035.96  1090.39  1104.82
                             1126.67  1131.55  1150.10  1239.21  1249.16
                             1266.10  1292.34  1314.96  1325.68  1338.85
                             1348.33  1372.70  1375.49  1389.25  1396.12
                             1399.46  1412.90  1432.67  1445.15  1461.95
                             1462.87  1489.22  1496.96  1500.03  1522.14
                             1523.00  1546.77  1592.28  1594.41  1619.67
                             1622.24  1656.92  1679.99  1694.98  1699.96
                             1710.33  1713.28  1751.15  1753.17  1772.29
                             1800.30  1806.58  1812.64  1848.80  1887.93
                             1907.76  1927.63  1932.48  1970.35  1971.06
                             1983.11  2050.04  2053.52  2078.41  2080.56
                             2083.21  2108.16  2142.98  2144.08  2147.27
                             2165.69  2178.72  2181.96  2190.03  2192.59
                             2205.20  2208.22  2209.37  2212.35  2214.16
                             2219.94  2221.92  2353.10  2357.14  2367.37
                             2380.79  2387.60  2389.63  4382.81  4386.24
                             4393.39  4394.31  4401.18  4455.92  4481.23
                             4488.04  4488.53  4495.88  4496.89  4497.92
                             4500.32  4507.22  4513.38  4573.81  4583.17
                             4584.26  4593.63  4599.51  4607.94  4612.89
                             4613.15  4620.26  4630.88  4635.02  4635.96
                             5271.52

 Zero-point correction=                           0.465238 (Hartree/Particle)
 Thermal correction to Energy=                    0.489439
 Thermal correction to Enthalpy=                  0.490383
 Thermal correction to Gibbs Free Energy=         0.411739
 Sum of electronic and zero-point Energies=          -1044.314677
 Sum of electronic and thermal Energies=             -1044.290477
 Sum of electronic and thermal Enthalpies=           -1044.289532
 Sum of electronic and thermal Free Energies=        -1044.368177

                     E (Thermal)             CV                S
                      KCal/Mol        Cal/Mol-Kelvin    Cal/Mol-Kelvin
 Total                  307.127             97.773            165.521
 Electronic               0.000              0.000              0.000
 Translational            0.889              2.981             43.403
 Rotational               0.889              2.981             35.422
 Vibrational            305.350             91.811             86.697
 Vibration     1          0.593              1.986              6.727
 Vibration     2          0.593              1.985              6.186
 Vibration     3          0.594              1.981              5.265
 Vibration     4          0.596              1.977              4.714
 Vibration     5          0.597              1.973              4.433
 Vibration     6          0.597              1.972              4.365
 Vibration     7          0.606              1.944              3.322
 Vibration     8          0.610              1.930              3.048
 Vibration     9          0.614              1.915              2.829
 Vibration    10          0.618              1.903              2.677
 Vibration    11          0.631              1.862              2.287
 Vibration    12          0.637              1.843              2.152
 Vibration    13          0.644              1.822              2.020
 Vibration    14          0.650              1.800              1.905
 Vibration    15          0.665              1.756              1.704
 Vibration    16          0.669              1.745              1.658
 Vibration    17          0.674              1.728              1.595
 Vibration    18          0.692              1.675              1.421
 Vibration    19          0.695              1.666              1.396
 Vibration    20          0.696              1.664              1.388
 Vibration    21          0.702              1.645              1.336
 Vibration    22          0.705              1.638              1.318
 Vibration    23          0.715              1.610              1.246
 Vibration    24          0.719              1.598              1.217
 Vibration    25          0.722              1.590              1.200
 Vibration    26          0.727              1.575              1.167
 Vibration    27          0.734              1.556              1.125
 Vibration    28          0.756              1.496              1.008
 Vibration    29          0.774              1.450              0.930
 Vibration    30          0.780              1.433              0.902
 Vibration    31          0.781              1.432              0.901
 Vibration    32          0.795              1.396              0.845
 Vibration    33          0.817              1.340              0.768
 Vibration    34          0.839              1.287              0.701
 Vibration    35          0.853              1.255              0.664
 Vibration    36          0.880              1.195              0.599
 Vibration    37          0.906              1.138              0.542
 Vibration    38          0.920              1.109              0.516
 Vibration    39          0.941              1.066              0.478
 Vibration    40          0.954              1.041              0.457

 Optimization completed.
    -- Stationary point found.
 Normal termination of Gaussian 16 at Thu Sep 23 14:51:10 2021.
