 Gaussian 16, Revision C.01,
 Gaussian 16:  ES64L-G16RevC.01  3-Jul-2019

 ----------------------------------------------------
 # opt freq b3lyp/6-31g(d) scrf=(smd,solvent=toluene)
 ----------------------------------------------------

 -------
 tbuClbz
 -------
 Symbolic Z-matrix:
 Charge =  0 Multiplicity = 1

 SCF Done:  E(RB3LYP) =  -963.627458004     A.U. after   13 cycles
 SCF Done:  E(RB3LYP) =  -963.638766888     A.U. after   11 cycles
 SCF Done:  E(RB3LYP) =  -963.641110431     A.U. after   10 cycles
 SCF Done:  E(RB3LYP) =  -963.642232629     A.U. after   11 cycles
 SCF Done:  E(RB3LYP) =  -963.642365597     A.U. after   11 cycles
 SCF Done:  E(RB3LYP) =  -963.643109244     A.U. after   11 cycles
 SCF Done:  E(RB3LYP) =  -963.643439691     A.U. after   10 cycles
 SCF Done:  E(RB3LYP) =  -963.643569320     A.U. after    9 cycles
 SCF Done:  E(RB3LYP) =  -963.643587593     A.U. after    9 cycles
 SCF Done:  E(RB3LYP) =  -963.643591105     A.U. after    8 cycles
 SCF Done:  E(RB3LYP) =  -963.643592603     A.U. after    7 cycles
 SCF Done:  E(RB3LYP) =  -963.643592673     A.U. after    6 cycles
 Optimization completed.
    -- Stationary point found.
 Normal termination of Gaussian 16 at Thu Sep 23 17:47:28 2021.

 --------------------------------------------------------------------
 #N Geom=AllCheck Guess=TCheck SCRF=Check GenChk RB3LYP/6-31G(d) Freq
 --------------------------------------------------------------------

 Structure from the checkpoint file:  "tbuClbz.chk"
 -------
 tbuClbz
 -------
 Charge =  0 Multiplicity = 1

                         Standard orientation:
 ---------------------------------------------------------------------
 Center     Atomic      Atomic             Coordinates (Angstroms)
 Number     Number       Type             X           Y           Z
 ---------------------------------------------------------------------
      1          6           0        0.506251   -1.055424    0.000031
      2          6           0       -0.604767   -0.201131    0.000038
      3          6           0       -0.338780    1.187747    0.000037
      4          6           0        0.972564    1.700843   -0.000070
      5          6           0        2.050000    0.812014   -0.000082
      6          6           0        1.804204   -0.553579   -0.000019
      7          1           0        0.367296   -2.128161    0.000084
      8          1           0        3.066750    1.191405   -0.000193
      9          6           0        1.208008    3.193931   -0.000093
     10          1           0        0.779643    3.682106   -0.887685
     11          1           0        0.779596    3.682142    0.887444
     12          1           0        2.278300    3.417473   -0.000051
     13          6           0       -2.043783   -0.763199   -0.000021
     14          6           0       -2.797365   -0.292782   -1.267904
     15          1           0       -3.815137   -0.702817   -1.270739
     16          1           0       -2.870134    0.795458   -1.319592
     17          1           0       -2.292257   -0.646657   -2.174905
     18          6           0       -2.059125   -2.304945   -0.000191
     19          1           0       -1.574097   -2.725487    0.888428
     20          1           0       -3.097993   -2.653758   -0.000255
     21          1           0       -1.574049   -2.725285   -0.888879
     22          6           0       -2.797514   -0.293067    1.267870
     23          1           0       -3.815267   -0.703145    1.270529
     24          1           0       -2.292480   -0.647095    2.174855
     25          1           0       -2.870324    0.795159    1.319770
     26          8           0       -1.405545    2.050806    0.000277
     27          1           0       -1.079115    2.964310    0.000244
     28         17           0        3.167969   -1.681444    0.000068
 ---------------------------------------------------------------------

 SCF Done:  E(RB3LYP) =  -963.643592673     A.U. after    1 cycles

 The electronic state is 1-A.
 Alpha  occ. eigenvalues -- -101.54163 -19.18049 -10.24932 -10.23862 -10.20221
 Alpha  occ. eigenvalues --  -10.20033 -10.19707 -10.19458 -10.19410 -10.19112
 Alpha  occ. eigenvalues --  -10.16694 -10.16223 -10.16222  -9.45772  -7.22155
 Alpha  occ. eigenvalues --   -7.21204  -7.21186  -1.06150  -0.88097  -0.83405
 Alpha  occ. eigenvalues --   -0.81069  -0.76214  -0.72167  -0.69827  -0.67341
 Alpha  occ. eigenvalues --   -0.67234  -0.61528  -0.59588  -0.54481  -0.53690
 Alpha  occ. eigenvalues --   -0.49194  -0.46337  -0.44906  -0.43900  -0.42843
 Alpha  occ. eigenvalues --   -0.42577  -0.41800  -0.40748  -0.40113  -0.39103
 Alpha  occ. eigenvalues --   -0.37259  -0.37229  -0.36687  -0.36654  -0.36245
 Alpha  occ. eigenvalues --   -0.35154  -0.32513  -0.32150  -0.30971  -0.30421
 Alpha  occ. eigenvalues --   -0.30191  -0.24568  -0.21370
 Alpha virt. eigenvalues --   -0.00294   0.00565   0.03481   0.06639   0.10290
 Alpha virt. eigenvalues --    0.13226   0.13616   0.13706   0.14160   0.15621
 Alpha virt. eigenvalues --    0.16210   0.17551   0.17739   0.18483   0.19180

 Mulliken charges:
               1
     1  C   -0.224225
     2  C    0.145273
     3  C    0.210038
     4  C    0.167176
     5  C   -0.212593
     6  C   -0.065787
     7  H    0.160598
     8  H    0.157244
     9  C   -0.591680
    10  H    0.175774
    11  H    0.175767
    12  H    0.184289
    13  C    0.039498
    14  C   -0.459397
    15  H    0.138925
    16  H    0.167722
    17  H    0.142928
    18  C   -0.467976
    19  H    0.150158
    20  H    0.147115
    21  H    0.150157
    22  C   -0.459392
    23  H    0.138928
    24  H    0.142926
    25  H    0.167722
    26  O   -0.650694
    27  H    0.427523
    28  Cl  -0.058016
 Sum of Mulliken charges =  -0.00000

 Dipole moment (field-independent basis, Debye):
    X=             -1.1467    Y=              3.2596    Z=             -0.0002  Tot=              3.4554
 Quadrupole moment (field-independent basis, Debye-Ang):
   XX=            -90.1610   YY=            -74.0416   ZZ=            -87.9006
   XY=              6.8071   XZ=             -0.0001   YZ=             -0.0002

  Exact polarizability:     185.350      -3.415     171.613      -0.002      -0.002      88.646
 Approx polarizability:     234.503     -15.077     223.234      -0.004      -0.002     113.897

                      1                      2                      3
                      A                      A                      A
 Frequencies --     61.6653                91.4565               145.6956
 Red. masses --      3.2143                 3.3831                 3.8952
 Frc consts  --      0.0072                 0.0167                 0.0487
 IR Inten    --      0.0056                 0.6937                 0.1774

                      4                      5                      6
                      A                      A                      A
 Frequencies --    168.4083               193.2981               200.9701
 Red. masses --      5.3895                 1.2458                 1.9107
 Frc consts  --      0.0901                 0.0274                 0.0455
 IR Inten    --      0.0882                 8.2119                 0.3377

                      7                      8                      9
                      A                      A                      A
 Frequencies --    221.4887               229.2440               260.0525
 Red. masses --      1.1757                 3.3519                 1.1223
 Frc consts  --      0.0340                 0.1038                 0.0447
 IR Inten    --      1.6223                 1.2928                 0.5752

                     10                     11                     12
                      A                      A                      A
 Frequencies --    284.9570               290.0136               310.8556
 Red. masses --      1.5205                 2.6578                 1.9269
 Frc consts  --      0.0727                 0.1317                 0.1097
 IR Inten    --     78.2415                 1.3429                21.1031

                     13                     14                     15
                      A                      A                      A
 Frequencies --    343.1623               349.8757               360.0137
 Red. masses --      3.3440                 1.0528                 3.9882
 Frc consts  --      0.2320                 0.0759                 0.3046
 IR Inten    --      1.2493                 0.3154                 4.0111

                     16                     17                     18
                      A                      A                      A
 Frequencies --    373.5677               377.6243               414.2669
 Red. masses --      3.2732                 9.2928                 2.8836
 Frc consts  --      0.2691                 0.7808                 0.2916
 IR Inten    --      2.0655                 3.3347                 0.7765

                     19                     20                     21
                      A                      A                      A
 Frequencies --    415.2887               516.3940               541.1878
 Red. masses --      2.7862                 4.4486                 2.8539
 Frc consts  --      0.2831                 0.6989                 0.4925
 IR Inten    --      1.3284                 4.5070                 5.2733

                     22                     23                     24
                      A                      A                      A
 Frequencies --    558.6997               590.4740               605.8317
 Red. masses --      3.7890                 4.3002                 3.7924
 Frc consts  --      0.6968                 0.8834                 0.8201
 IR Inten    --      0.4288                 1.0556                 3.9873

                     25                     26                     27
                      A                      A                      A
 Frequencies --    726.2284               750.2655               806.2133
 Red. masses --      6.2963                 6.4207                 3.7371
 Frc consts  --      1.9565                 2.1294                 1.4312
 IR Inten    --     48.5199                 3.3146                 7.9882

                     28                     29                     30
                      A                      A                      A
 Frequencies --    875.3050               883.9099               896.8386
 Red. masses --      1.3169                 5.2402                 1.3843
 Frc consts  --      0.5945                 2.4122                 0.6560
 IR Inten    --     20.7581                32.3509                 6.6657

                     31                     32                     33
                      A                      A                      A
 Frequencies --    922.0972               941.9577               949.4551
 Red. masses --      3.2074                 1.7595                 1.7516
 Frc consts  --      1.6068                 0.9198                 0.9303
 IR Inten    --     21.0247                 1.3980                 9.7252

                     34                     35                     36
                      A                      A                      A
 Frequencies --    977.8663              1032.8803              1058.9198
 Red. masses --      1.1961                 1.5010                 1.3999
 Frc consts  --      0.6739                 0.9435                 0.9248
 IR Inten    --      0.1698                 3.4373                 4.9808

                     37                     38                     39
                      A                      A                      A
 Frequencies --   1064.8681              1073.7949              1150.3196
 Red. masses --      1.3818                 1.4514                 1.8443
 Frc consts  --      0.9232                 0.9860                 1.4378
 IR Inten    --      0.1490                 2.2160                 0.1330

                     40                     41                     42
                      A                      A                      A
 Frequencies --   1180.8224              1236.3665              1238.9837
 Red. masses --      2.3055                 2.6475                 2.4777
 Frc consts  --      1.8940                 2.3844                 2.2410
 IR Inten    --     19.9901                 5.3694                81.7687

                     43                     44                     45
                      A                      A                      A
 Frequencies --   1243.6562              1285.6665              1301.1209
 Red. masses --      2.3510                 2.7192                 2.0918
 Frc consts  --      2.1424                 2.6482                 2.0865
 IR Inten    --    119.6153                73.2158                14.3026

                     46                     47                     48
                      A                      A                      A
 Frequencies --   1308.1908              1376.7897              1423.4051
 Red. masses --      2.7772                 2.3562                 1.2128
 Frc consts  --      2.8002                 2.6315                 1.4478
 IR Inten    --     20.0655                43.0343                 6.4104

                     49                     50                     51
                      A                      A                      A
 Frequencies --   1427.6833              1446.8667              1453.3855
 Red. masses --      1.2299                 1.2861                 1.3788
 Frc consts  --      1.4771                 1.5863                 1.7160
 IR Inten    --      3.7909                10.5889                27.0875

                     52                     53                     54
                      A                      A                      A
 Frequencies --   1465.2428              1481.9751              1508.7615
 Red. masses --      3.2264                 2.1365                 1.0482
 Frc consts  --      4.0812                 2.7647                 1.4058
 IR Inten    --     40.8519               119.4437                 0.4876

                     55                     56                     57
                      A                      A                      A
 Frequencies --   1518.5624              1522.3822              1524.4102
 Red. masses --      1.0414                 1.0514                 1.0459
 Frc consts  --      1.4150                 1.4357                 1.4320
 IR Inten    --      9.9564                 2.7003                 0.2175

                     58                     59                     60
                      A                      A                      A
 Frequencies --   1529.4865              1537.8647              1537.8770
 Red. masses --      1.0647                 1.0517                 1.2464
 Frc consts  --      1.4674                 1.4655                 1.7368
 IR Inten    --      9.4084                 4.6202                26.5075

                     61                     62                     63
                      A                      A                      A
 Frequencies --   1552.7161              1635.7595              1650.1186
 Red. masses --      1.0578                 5.5398                 6.7772
 Frc consts  --      1.5026                 8.7334                10.8726
 IR Inten    --      7.2219                 2.5550                 8.7413

                     64                     65                     66
                      A                      A                      A
 Frequencies --   3022.1588              3043.7889              3045.6886
 Red. masses --      1.0423                 1.0364                 1.0395
 Frc consts  --      5.6091                 5.6572                 5.6814
 IR Inten    --     31.3990                22.0255                42.9914

                     67                     68                     69
                      A                      A                      A
 Frequencies --   3052.7940              3067.1036              3103.2583
 Red. masses --      1.0397                 1.1018                 1.1024
 Frc consts  --      5.7090                 6.1068                 6.2552
 IR Inten    --     48.7730                21.3557                15.6998

                     70                     71                     72
                      A                      A                      A
 Frequencies --   3104.5119              3113.8068              3114.7618
 Red. masses --      1.1020                 1.1028                 1.1013
 Frc consts  --      6.2575                 6.3000                 6.2951
 IR Inten    --     22.7011                48.7866                94.1831

                     73                     74                     75
                      A                      A                      A
 Frequencies --   3136.1657              3157.2920              3159.5292
 Red. masses --      1.0955                 1.0978                 1.0971
 Frc consts  --      6.3481                 6.4475                 6.4528
 IR Inten    --     12.1421                 0.1106                30.1290

                     76                     77                     78
                      A                      A                      A
 Frequencies --   3216.2935              3255.0716              3743.5350
 Red. masses --      1.0919                 1.0896                 1.0654
 Frc consts  --      6.6548                 6.8020                 8.7967
 IR Inten    --      3.7115                 1.0284                98.0928

 - Thermochemistry -
 -------------------
 Temperature   298.150 Kelvin.  Pressure   1.00000 Atm.
 Atom     1 has atomic number  6 and mass  12.00000

 Molecular mass:   198.08114 amu.
 Principal axes and moments of inertia in atomic units:
                           1         2         3
     Eigenvalues --  2041.170953380.961425007.46448
           X            0.99478   0.10208  -0.00000
           Y           -0.10208   0.99478  -0.00000
           Z            0.00000   0.00000   1.00000
 This molecule is an asymmetric top.
 Rotational symmetry number  1.
 Warning -- assumption of classical behavior for rotation
           may cause significant error
 Rotational temperatures (Kelvin)      0.04243     0.02562     0.01730
 Rotational constants (GHZ):           0.88417     0.53380     0.36041
 Zero-point vibrational energy     620498.6 (Joules/Mol)
                                  148.30273 (Kcal/Mol)
 Warning -- explicit consideration of  24 degrees of freedom as
           vibrations may cause significant error
 Vibrational temperatures:     88.72   131.59   209.62   242.30   278.11
          (Kelvin)            289.15   318.67   329.83   374.16   409.99
                              417.26   447.25   493.73   503.39   517.98
                              537.48   543.32   596.04   597.51   742.98
                              778.65   803.84   849.56   871.66  1044.88
                             1079.46  1159.96  1259.37  1271.75  1290.35
                             1326.69  1355.27  1366.05  1406.93  1486.08
                             1523.55  1532.11  1544.95  1655.05  1698.94
                             1778.86  1782.62  1789.34  1849.79  1872.02
                             1882.19  1980.89  2047.96  2054.12  2081.72
                             2091.10  2108.16  2132.23  2170.77  2184.87
                             2190.37  2193.29  2200.59  2212.64  2212.66
                             2234.01  2353.49  2374.15  4348.21  4379.33
                             4382.07  4392.29  4412.88  4464.90  4466.70
                             4480.07  4481.45  4512.24  4542.64  4545.86
                             4627.53  4683.32  5386.11

 Zero-point correction=                           0.236335 (Hartree/Particle)
 Thermal correction to Energy=                    0.250115
 Thermal correction to Enthalpy=                  0.251059
 Thermal correction to Gibbs Free Energy=         0.197138
 Sum of electronic and zero-point Energies=           -963.407257
 Sum of electronic and thermal Energies=              -963.393478
 Sum of electronic and thermal Enthalpies=            -963.392534
 Sum of electronic and thermal Free Energies=         -963.446455

                     E (Thermal)             CV                S
                      KCal/Mol        Cal/Mol-Kelvin    Cal/Mol-Kelvin
 Total                  156.949             53.444            113.485
 Electronic               0.000              0.000              0.000
 Translational            0.889              2.981             41.755
 Rotational               0.889              2.981             31.914
 Vibrational            155.172             47.482             39.817
 Vibration     1          0.597              1.973              4.403
 Vibration     2          0.602              1.955              3.629
 Vibration     3          0.617              1.907              2.728
 Vibration     4          0.625              1.881              2.453
 Vibration     5          0.635              1.849              2.196
 Vibration     6          0.638              1.839              2.124
 Vibration     7          0.648              1.808              1.947
 Vibration     8          0.652              1.796              1.885
 Vibration     9          0.668              1.746              1.661
 Vibration    10          0.683              1.702              1.504
 Vibration    11          0.686              1.692              1.474
 Vibration    12          0.700              1.653              1.358
 Vibration    13          0.722              1.589              1.197
 Vibration    14          0.727              1.576              1.167
 Vibration    15          0.735              1.555              1.122
 Vibration    16          0.745              1.526              1.065
 Vibration    17          0.748              1.518              1.049
 Vibration    18          0.778              1.439              0.912
 Vibration    19          0.779              1.437              0.908
 Vibration    20          0.871              1.214              0.618
 Vibration    21          0.896              1.159              0.563
 Vibration    22          0.914              1.121              0.526
 Vibration    23          0.948              1.052              0.466
 Vibration    24          0.964              1.019              0.440

 Optimization completed.
    -- Stationary point found.
 Normal termination of Gaussian 16 at Thu Sep 23 17:54:45 2021.
