 Gaussian 16, Revision C.01,
 Gaussian 16:  ES64L-G16RevC.01  3-Jul-2019

 ----------------------------------------------------
 # opt freq b3lyp/6-31g(d) scrf=(smd,solvent=toluene)
 ----------------------------------------------------

 ------
 MeMebz
 ------
 Symbolic Z-matrix:
 Charge =  0 Multiplicity = 1

 SCF Done:  E(RB3LYP) =  -425.414971259     A.U. after   12 cycles
 SCF Done:  E(RB3LYP) =  -425.422922798     A.U. after   11 cycles
 SCF Done:  E(RB3LYP) =  -425.423485258     A.U. after    9 cycles
 SCF Done:  E(RB3LYP) =  -425.423497904     A.U. after    8 cycles
 SCF Done:  E(RB3LYP) =  -425.423498530     A.U. after    7 cycles
 SCF Done:  E(RB3LYP) =  -425.423498647     A.U. after    7 cycles
 SCF Done:  E(RB3LYP) =  -425.423498723     A.U. after    7 cycles
 SCF Done:  E(RB3LYP) =  -425.423499180     A.U. after    7 cycles
 SCF Done:  E(RB3LYP) =  -425.416470572     A.U. after   12 cycles
 SCF Done:  E(RB3LYP) =  -425.364336235     A.U. after   12 cycles
 SCF Done:  E(RB3LYP) =  -425.428403851     A.U. after   13 cycles
 SCF Done:  E(RB3LYP) =  -425.428826175     A.U. after   10 cycles
 SCF Done:  E(RB3LYP) =  -425.429081760     A.U. after    4 cycles
 SCF Done:  E(RB3LYP) =  -425.429079232     A.U. after   12 cycles
 SCF Done:  E(RB3LYP) =  -425.429099776     A.U. after    9 cycles
 SCF Done:  E(RB3LYP) =  -425.429100605     A.U. after    7 cycles
 SCF Done:  E(RB3LYP) =  -425.429101126     A.U. after    7 cycles
 SCF Done:  E(RB3LYP) =  -425.429101168     A.U. after    7 cycles
 SCF Done:  E(RB3LYP) =  -425.429101175     A.U. after    6 cycles
 Optimization completed.
    -- Stationary point found.
 Normal termination of Gaussian 16 at Thu Sep 23 11:59:54 2021.

 --------------------------------------------------------------------
 #N Geom=AllCheck Guess=TCheck SCRF=Check GenChk RB3LYP/6-31G(d) Freq
 --------------------------------------------------------------------

 Structure from the checkpoint file:  "MeMebz.chk"
 ------
 MeMebz
 ------
 Charge =  0 Multiplicity = 1

                         Standard orientation:
 ---------------------------------------------------------------------
 Center     Atomic      Atomic             Coordinates (Angstroms)
 Number     Number       Type             X           Y           Z
 ---------------------------------------------------------------------
      1          6           0       -1.023741    1.182911   -0.003346
      2          6           0        0.370759    1.238518   -0.000168
      3          6           0        1.080822    0.025161    0.001731
      4          6           0        0.419181   -1.212013   -0.000140
      5          6           0       -0.981585   -1.212791   -0.003285
      6          6           0       -1.725637   -0.030791   -0.003956
      7          1           0       -1.579535    2.119304   -0.005911
      8          1           0       -1.499719   -2.169958   -0.005538
      9          8           0        2.450569    0.118884    0.003348
     10          1           0        2.831354   -0.773220    0.003980
     11          6           0        1.206995   -2.501455   -0.000847
     12          1           0        1.854202   -2.593912   -0.885565
     13          1           0        1.849916   -2.597383    0.886617
     14          1           0        0.537289   -3.366456   -0.004121
     15          6           0        1.117422    2.548277   -0.000762
     16          1           0        1.766657    2.641933    0.878815
     17          1           0        1.768835    2.640032   -0.878934
     18          1           0        0.422661    3.394193   -0.002511
     19          6           0       -3.236820   -0.051422    0.004498
     20          1           0       -3.623125   -1.069021   -0.117267
     21          1           0       -3.642640    0.343729    0.945611
     22          1           0       -3.654815    0.561324   -0.804309
 ---------------------------------------------------------------------

 SCF Done:  E(RB3LYP) =  -425.429101175     A.U. after    1 cycles

 The electronic state is 1-A.
 Alpha  occ. eigenvalues --  -19.16989 -10.23279 -10.18664 -10.18559 -10.18316
 Alpha  occ. eigenvalues --  -10.18010 -10.17506 -10.17317 -10.17262 -10.17072
 Alpha  occ. eigenvalues --   -1.04903  -0.84529  -0.77527  -0.76373  -0.69478
 Alpha  occ. eigenvalues --   -0.67232  -0.66638  -0.58608  -0.56248  -0.52742
 Alpha  occ. eigenvalues --   -0.48017  -0.43728  -0.43026  -0.41618  -0.40701
 Alpha  occ. eigenvalues --   -0.40212  -0.39713  -0.39390  -0.39149  -0.37364
 Alpha  occ. eigenvalues --   -0.36693  -0.35482  -0.33397  -0.32104  -0.31053
 Alpha  occ. eigenvalues --   -0.23009  -0.20227
 Alpha virt. eigenvalues --    0.01165   0.02210   0.07364   0.11249   0.13321
 Alpha virt. eigenvalues --    0.13675   0.13974   0.14925   0.15623   0.17160
 Alpha virt. eigenvalues --    0.18278   0.18376   0.19732   0.20541   0.22720

 Mulliken charges:
               1
     1  C   -0.270706
     2  C    0.151696
     3  C    0.196342
     4  C    0.171134
     5  C   -0.283122
     6  C    0.192549
     7  H    0.122566
     8  H    0.123034
     9  O   -0.655808
    10  H    0.422541
    11  C   -0.585886
    12  H    0.167838
    13  H    0.167878
    14  H    0.176347
    15  C   -0.522979
    16  H    0.166209
    17  H    0.166217
    18  H    0.153046
    19  C   -0.539769
    20  H    0.156757
    21  H    0.162971
    22  H    0.161144
 Sum of Mulliken charges =   0.00000

 Dipole moment (field-independent basis, Debye):
    X=              0.2247    Y=             -1.5682    Z=              0.0119  Tot=              1.5843
 Quadrupole moment (field-independent basis, Debye-Ang):
   XX=            -55.6662   YY=            -54.0489   ZZ=            -62.4645
   XY=             -4.6822   XZ=             -0.0234   YZ=             -0.0065

  Exact polarizability:     142.833      -2.013     135.082      -0.142       0.006      58.064
 Approx polarizability:     187.352      -0.888     172.178      -0.089       0.011      76.115

                      1                      2                      3
                      A                      A                      A
 Frequencies --     30.3622               114.4873               135.4651
 Red. masses --      1.0384                 1.4679                 1.0490
 Frc consts  --      0.0006                 0.0113                 0.0113
 IR Inten    --      0.2541                 0.3589                 0.2972

                      4                      5                      6
                      A                      A                      A
 Frequencies --    152.3912               174.7750               228.7118
 Red. masses --      1.7434                 2.7648                 2.6274
 Frc consts  --      0.0239                 0.0498                 0.0810
 IR Inten    --      0.7196                 3.1364                10.4287

                      7                      8                      9
                      A                      A                      A
 Frequencies --    268.5868               274.2982               318.9775
 Red. masses --      2.5338                 2.5898                 1.1552
 Frc consts  --      0.1077                 0.1148                 0.0692
 IR Inten    --      0.5616                 1.6707               109.6701

                     10                     11                     12
                      A                      A                      A
 Frequencies --    325.5915               358.0780               463.8871
 Red. masses --      3.8003                 4.5519                 5.9660
 Frc consts  --      0.2374                 0.3439                 0.7564
 IR Inten    --      4.6811                 0.0182                 2.2848

                     13                     14                     15
                      A                      A                      A
 Frequencies --    504.1793               506.6221               577.7346
 Red. masses --      3.5199                 3.3502                 4.0800
 Frc consts  --      0.5272                 0.5066                 0.8023
 IR Inten    --      3.2583                 0.5271                 0.1356

                     16                     17                     18
                      A                      A                      A
 Frequencies --    585.5975               586.0351               731.8630
 Red. masses --      3.1892                 3.8589                 5.0959
 Frc consts  --      0.6444                 0.7808                 1.6082
 IR Inten    --      0.9970                 6.3821                 2.6555

                     19                     20                     21
                      A                      A                      A
 Frequencies --    778.3983               877.3846               903.4853
 Red. masses --      4.3435                 1.2703                 1.2999
 Frc consts  --      1.5506                 0.5762                 0.6252
 IR Inten    --     12.8052                16.9067                 1.0787

                     22                     23                     24
                      A                      A                      A
 Frequencies --    943.8973               977.4438              1032.9130
 Red. masses --      2.5689                 3.8307                 1.6225
 Frc consts  --      1.3485                 2.1563                 1.0199
 IR Inten    --      7.1606                 0.7972                17.0281

                     25                     26                     27
                      A                      A                      A
 Frequencies --   1045.0054              1052.7793              1068.7066
 Red. masses --      1.5589                 1.5564                 1.4645
 Frc consts  --      1.0030                 1.0163                 0.9855
 IR Inten    --      3.9976                21.7016                 4.9734

                     28                     29                     30
                      A                      A                      A
 Frequencies --   1076.0246              1076.9112              1186.6783
 Red. masses --      1.4782                 1.4779                 1.8480
 Frc consts  --      1.0084                 1.0099                 1.5333
 IR Inten    --      1.9708                 3.7592                25.2586

                     31                     32                     33
                      A                      A                      A
 Frequencies --   1238.7181              1278.8602              1308.5113
 Red. masses --      1.5786                 2.7440                 1.7339
 Frc consts  --      1.4272                 2.6441                 1.7491
 IR Inten    --    156.3820                57.8504                33.1975

                     34                     35                     36
                      A                      A                      A
 Frequencies --   1351.1072              1378.1871              1440.8788
 Red. masses --      4.4889                 2.7752                 1.2527
 Frc consts  --      4.8281                 3.1057                 1.5324
 IR Inten    --     10.0950                38.2083                 0.8352

                     37                     38                     39
                      A                      A                      A
 Frequencies --   1442.7613              1446.4544              1465.3183
 Red. masses --      1.2406                 1.2982                 2.6592
 Frc consts  --      1.5215                 1.6002                 3.3641
 IR Inten    --      1.8494                 1.7381                 2.7719

                     40                     41                     42
                      A                      A                      A
 Frequencies --   1493.9598              1505.4208              1511.4545
 Red. masses --      1.6606                 1.0445                 1.0450
 Frc consts  --      2.1837                 1.3946                 1.4066
 IR Inten    --     47.9819                 8.0482                 3.2572

                     43                     44                     45
                      A                      A                      A
 Frequencies --   1513.5320              1520.3153              1532.0975
 Red. masses --      1.0428                 1.0532                 1.2654
 Frc consts  --      1.4075                 1.4343                 1.7500
 IR Inten    --      9.5689                 0.6569                27.2366

                     46                     47                     48
                      A                      A                      A
 Frequencies --   1545.0481              1660.3410              1669.8939
 Red. masses --      1.6822                 6.1568                 5.7836
 Frc consts  --      2.3659                 9.9999                 9.5023
 IR Inten    --     82.9861                 7.5264                 0.4104

                     49                     50                     51
                      A                      A                      A
 Frequencies --   3018.1567              3037.4080              3045.6004
 Red. masses --      1.0421                 1.0387                 1.0370
 Frc consts  --      5.5931                 5.6460                 5.6673
 IR Inten    --     43.6392                52.7937                37.3554

                     52                     53                     54
                      A                      A                      A
 Frequencies --   3060.7866              3087.1167              3095.5843
 Red. masses --      1.1014                 1.1002                 1.1007
 Frc consts  --      6.0796                 6.1780                 6.2143
 IR Inten    --     27.4654                29.1046                23.2447

                     55                     56                     57
                      A                      A                      A
 Frequencies --   3118.5365              3126.9937              3129.4999
 Red. masses --      1.1008                 1.1021                 1.0953
 Frc consts  --      6.3076                 6.3493                 6.3204
 IR Inten    --     24.7159                23.2564                13.7524

                     58                     59                     60
                      A                      A                      A
 Frequencies --   3169.3514              3174.1216              3747.0535
 Red. masses --      1.0898                 1.0899                 1.0654
 Frc consts  --      6.4494                 6.4695                 8.8138
 IR Inten    --     31.7397                21.5303                79.4079

 - Thermochemistry -
 -------------------
 Temperature   298.150 Kelvin.  Pressure   1.00000 Atm.
 Atom     1 has atomic number  6 and mass  12.00000

 Molecular mass:   136.08882 amu.
 Principal axes and moments of inertia in atomic units:
                           1         2         3
     Eigenvalues --  1037.586081439.830732443.79478
           X            0.99979  -0.02065  -0.00015
           Y            0.02065   0.99979  -0.00001
           Z            0.00015   0.00001   1.00000
 This molecule is an asymmetric top.
 Rotational symmetry number  1.
 Warning -- assumption of classical behavior for rotation
           may cause significant error
 Rotational temperatures (Kelvin)      0.08348     0.06016     0.03544
 Rotational constants (GHZ):           1.73937     1.25344     0.73850
 Zero-point vibrational energy     493282.2 (Joules/Mol)
                                  117.89727 (Kcal/Mol)
 Warning -- explicit consideration of  17 degrees of freedom as
           vibrations may cause significant error
 Vibrational temperatures:     43.68   164.72   194.90   219.26   251.46
          (Kelvin)            329.07   386.44   394.65   458.94   468.45
                              515.19   667.43   725.40   728.92   831.23
                              842.54   843.17  1052.99  1119.94  1262.36
                             1299.91  1358.06  1406.32  1486.13  1503.53
                             1514.71  1537.63  1548.16  1549.44  1707.37
                             1782.24  1839.99  1882.66  1943.94  1982.90
                             2073.10  2075.81  2081.13  2108.27  2149.47
                             2165.96  2174.65  2177.63  2187.39  2204.35
                             2222.98  2388.86  2402.60  4342.45  4370.15
                             4381.94  4403.79  4441.67  4453.86  4486.88
                             4499.05  4502.65  4559.99  4566.85  5391.17

 Zero-point correction=                           0.187881 (Hartree/Particle)
 Thermal correction to Energy=                    0.198671
 Thermal correction to Enthalpy=                  0.199615
 Thermal correction to Gibbs Free Energy=         0.151506
 Sum of electronic and zero-point Energies=           -425.241220
 Sum of electronic and thermal Energies=              -425.230430
 Sum of electronic and thermal Enthalpies=            -425.229486
 Sum of electronic and thermal Free Energies=         -425.277595

                     E (Thermal)             CV                S
                      KCal/Mol        Cal/Mol-Kelvin    Cal/Mol-Kelvin
 Total                  124.668             39.760            101.254
 Electronic               0.000              0.000              0.000
 Translational            0.889              2.981             40.637
 Rotational               0.889              2.981             29.680
 Vibrational            122.891             33.798             30.937
 Vibration     1          0.594              1.984              5.806
 Vibration     2          0.607              1.937              3.191
 Vibration     3          0.613              1.918              2.867
 Vibration     4          0.619              1.900              2.642
 Vibration     5          0.627              1.873              2.384
 Vibration     6          0.651              1.797              1.889
 Vibration     7          0.673              1.731              1.605
 Vibration     8          0.677              1.721              1.569
 Vibration     9          0.705              1.637              1.315
 Vibration    10          0.710              1.624              1.282
 Vibration    11          0.733              1.559              1.130
 Vibration    12          0.821              1.330              0.755
 Vibration    13          0.859              1.241              0.648
 Vibration    14          0.862              1.235              0.642
 Vibration    15          0.934              1.079              0.490
 Vibration    16          0.943              1.063              0.475
 Vibration    17          0.943              1.062              0.474

 Optimization completed.
    -- Stationary point found.
 Normal termination of Gaussian 16 at Thu Sep 23 12:03:22 2021.
