 Gaussian 16, Revision C.01,
 Gaussian 16:  ES64L-G16RevC.01  3-Jul-2019

 -------------------------------------------------
 # opt freq b3lyp/6-31g scrf=(smd,solvent=toluene)
 -------------------------------------------------

 --------
 tbuSiHbz
 --------
 Symbolic Z-matrix:
 Charge =  0 Multiplicity = 1

 SCF Done:  E(RB3LYP) =  -873.195939791     A.U. after   13 cycles
 SCF Done:  E(RB3LYP) =  -873.213108620     A.U. after   11 cycles
 SCF Done:  E(RB3LYP) =  -873.216677292     A.U. after   11 cycles
 SCF Done:  E(RB3LYP) =  -873.219672294     A.U. after   10 cycles
 SCF Done:  E(RB3LYP) =  -873.221780364     A.U. after   12 cycles
 SCF Done:  E(RB3LYP) =  -873.222992345     A.U. after   12 cycles
 SCF Done:  E(RB3LYP) =  -873.223869672     A.U. after   10 cycles
 SCF Done:  E(RB3LYP) =  -873.224793665     A.U. after   10 cycles
 SCF Done:  E(RB3LYP) =  -873.225969134     A.U. after   12 cycles
 SCF Done:  E(RB3LYP) =  -873.225504652     A.U. after   13 cycles
 SCF Done:  E(RB3LYP) =  -873.229009707     A.U. after   12 cycles
 SCF Done:  E(RB3LYP) =  -873.229527177     A.U. after   10 cycles
 SCF Done:  E(RB3LYP) =  -873.229633445     A.U. after    9 cycles
 SCF Done:  E(RB3LYP) =  -873.229661032     A.U. after    9 cycles
 SCF Done:  E(RB3LYP) =  -873.229672612     A.U. after    8 cycles
 SCF Done:  E(RB3LYP) =  -873.229679766     A.U. after    8 cycles
 SCF Done:  E(RB3LYP) =  -873.229683931     A.U. after    8 cycles
 SCF Done:  E(RB3LYP) =  -873.229685057     A.U. after    7 cycles
 SCF Done:  E(RB3LYP) =  -873.229685262     A.U. after    7 cycles
 Optimization completed.
    -- Stationary point found.
 Normal termination of Gaussian 16 at Thu Sep 23 18:38:40 2021.

 -----------------------------------------------------------------
 #N Geom=AllCheck Guess=TCheck SCRF=Check GenChk RB3LYP/6-31G Freq
 -----------------------------------------------------------------

 Structure from the checkpoint file:  "tbuSiHbz.chk"
 --------
 tbuSiHbz
 --------
 Charge =  0 Multiplicity = 1

                         Standard orientation:
 ---------------------------------------------------------------------
 Center     Atomic      Atomic             Coordinates (Angstroms)
 Number     Number       Type             X           Y           Z
 ---------------------------------------------------------------------
      1          6           0       -0.779825    1.678961   -0.000014
      2          6           0       -0.660415    0.275902   -0.000006
      3          6           0       -1.863557   -0.458341   -0.000011
      4          6           0       -3.136924    0.145617    0.000024
      5          6           0       -3.195016    1.546888    0.000034
      6          6           0       -2.027652    2.313807    0.000008
      7          1           0        0.112300    2.293312   -0.000077
      8          1           0       -4.166933    2.032194    0.000044
      9          1           0       -2.087395    3.397577    0.000037
     10          8           0       -1.741401   -1.853829    0.000056
     11          1           0       -2.610309   -2.299059   -0.000543
     12          6           0       -4.393667   -0.696084    0.000089
     13          1           0       -4.462387   -1.342463   -0.887513
     14          1           0       -4.462116   -1.342644    0.887547
     15          1           0       -5.283554   -0.060123    0.000215
     16         14           0        1.029960   -0.671008    0.000031
     17          6           0        1.106725   -1.775844   -1.568293
     18          1           0        2.017679   -2.385890   -1.580743
     19          1           0        0.242016   -2.446038   -1.579453
     20          1           0        1.084859   -1.174959   -2.485022
     21          6           0        1.106498   -1.776194    1.568111
     22          1           0        0.240852   -2.445183    1.579778
     23          1           0        2.016600   -2.387540    1.579627
     24          1           0        1.086280   -1.175487    2.484993
     25          6           0        2.592933    0.525867    0.000057
     26          6           0        2.631814    1.411872   -1.268857
     27          1           0        1.773442    2.088919   -1.340403
     28          1           0        3.540896    2.032972   -1.267104
     29          1           0        2.652883    0.805889   -2.183216
     30          6           0        3.863482   -0.365196    0.001076
     31          1           0        4.763167    0.268914    0.000657
     32          1           0        3.916414   -1.006202    0.889423
     33          1           0        3.916852   -1.007898   -0.886020
     34          6           0        2.631364    1.413501    1.267822
     35          1           0        3.541046    2.033744    1.266035
     36          1           0        1.773597    2.091470    1.337634
     37          1           0        2.651013    0.808711    2.182994
 ---------------------------------------------------------------------

 SCF Done:  E(RB3LYP) =  -873.229685262     A.U. after    1 cycles

 The electronic state is 1-A.
 Alpha  occ. eigenvalues --  -66.11499 -19.16792 -10.24418 -10.19401 -10.18395
 Alpha  occ. eigenvalues --  -10.18291 -10.18103 -10.17529 -10.17469 -10.17232
 Alpha  occ. eigenvalues --  -10.15849 -10.15808 -10.15806 -10.14109 -10.14109
 Alpha  occ. eigenvalues --   -5.27106  -3.62958  -3.62888  -3.62878  -1.05385
 Alpha  occ. eigenvalues --   -0.84946  -0.78802  -0.77099  -0.73596  -0.68992
 Alpha  occ. eigenvalues --   -0.68543  -0.67507  -0.67087  -0.66066  -0.60156
 Alpha  occ. eigenvalues --   -0.59699  -0.54212  -0.53551  -0.48719  -0.46390
 Alpha  occ. eigenvalues --   -0.45609  -0.43154  -0.42881  -0.42521  -0.42420
 Alpha  occ. eigenvalues --   -0.40720  -0.39822  -0.39279  -0.39001  -0.38702
 Alpha  occ. eigenvalues --   -0.38226  -0.37852  -0.37095  -0.36641  -0.36458
 Alpha  occ. eigenvalues --   -0.35268  -0.34847  -0.34646  -0.32652  -0.31818
 Alpha  occ. eigenvalues --   -0.31597  -0.28697  -0.28203  -0.25011  -0.23954
 Alpha  occ. eigenvalues --   -0.21699
 Alpha virt. eigenvalues --   -0.00085   0.01255   0.06262   0.08138   0.09899
 Alpha virt. eigenvalues --    0.10978   0.11827   0.13083   0.13323   0.13506
 Alpha virt. eigenvalues --    0.13936   0.14640   0.14751   0.15058   0.16564

 Mulliken charges:
               1
     1  C   -0.213153
     2  C   -0.203861
     3  C    0.168439
     4  C    0.154981
     5  C   -0.196070
     6  C   -0.114840
     7  H    0.137568
     8  H    0.134766
     9  H    0.131030
    10  O   -0.632517
    11  H    0.388162
    12  C   -0.531130
    13  H    0.161667
    14  H    0.161688
    15  H    0.166672
    16  Si   1.085430
    17  C   -0.734335
    18  H    0.146622
    19  H    0.171619
    20  H    0.148719
    21  C   -0.734368
    22  H    0.171669
    23  H    0.146630
    24  H    0.148695
    25  C   -0.238343
    26  C   -0.403482
    27  H    0.136550
    28  H    0.121769
    29  H    0.135871
    30  C   -0.403680
    31  H    0.124929
    32  H    0.135802
    33  H    0.135786
    34  C   -0.403460
    35  H    0.121777
    36  H    0.136527
    37  H    0.135871
 Sum of Mulliken charges =  -0.00000

 Dipole moment (field-independent basis, Debye):
    X=             -2.5442    Y=             -0.3289    Z=             -0.0011  Tot=              2.5653
 Quadrupole moment (field-independent basis, Debye-Ang):
   XX=            -86.8176   YY=            -97.3386   ZZ=           -104.5319
   XY=              4.5112   XZ=              0.0031   YZ=              0.0029

  Exact polarizability:     231.782      -0.221     197.828       0.005       0.001     127.294
 Approx polarizability:     262.422       1.025     263.122       0.003       0.001     153.289

                      1                      2                      3
                      A                      A                      A
 Frequencies --     34.4319                59.9485                73.4598
 Red. masses --      2.9721                 2.8029                 3.0390
 Frc consts  --      0.0021                 0.0059                 0.0097
 IR Inten    --      0.0073                 0.0000                 0.9787

                      4                      5                      6
                      A                      A                      A
 Frequencies --    101.5257               129.7637               133.9438
 Red. masses --      3.5875                 1.1486                 1.0765
 Frc consts  --      0.0218                 0.0114                 0.0114
 IR Inten    --      0.1065                 0.0924                 0.2671

                      7                      8                      9
                      A                      A                      A
 Frequencies --    155.5799               157.4741               173.1052
 Red. masses --      1.6540                 3.3208                 1.6329
 Frc consts  --      0.0236                 0.0485                 0.0288
 IR Inten    --      0.5545                 2.1349                 2.1634

                     10                     11                     12
                      A                      A                      A
 Frequencies --    186.2391               187.6143               211.7366
 Red. masses --      2.2104                 2.5261                 1.1165
 Frc consts  --      0.0452                 0.0524                 0.0295
 IR Inten    --      2.4579                 0.4666                 1.1473

                     13                     14                     15
                      A                      A                      A
 Frequencies --    214.0963               221.6191               232.8224
 Red. masses --      2.1303                 2.1385                 2.2649
 Frc consts  --      0.0575                 0.0619                 0.0723
 IR Inten    --      1.1041                 2.6316                20.8147

                     16                     17                     18
                      A                      A                      A
 Frequencies --    264.4993               269.4319               288.8141
 Red. masses --      1.4426                 1.5262                 2.1242
 Frc consts  --      0.0595                 0.0653                 0.1044
 IR Inten    --      5.8025                 0.4373                 0.4605

                     19                     20                     21
                      A                      A                      A
 Frequencies --    304.9559               316.3981               318.3239
 Red. masses --      1.3700                 3.1231                 2.3386
 Frc consts  --      0.0751                 0.1842                 0.1396
 IR Inten    --     79.9932                 0.8445                51.0804

                     22                     23                     24
                      A                      A                      A
 Frequencies --    335.8749               386.4801               408.7100
 Red. masses --      3.3639                 2.8902                 2.3401
 Frc consts  --      0.2236                 0.2543                 0.2303
 IR Inten    --      8.5826                 8.8901                 1.8299

                     25                     26                     27
                      A                      A                      A
 Frequencies --    422.5742               483.9687               529.2173
 Red. masses --      3.2712                 4.1722                 3.9417
 Frc consts  --      0.3442                 0.5758                 0.6504
 IR Inten    --     18.0152                 6.6970                 0.0144

                     28                     29                     30
                      A                      A                      A
 Frequencies --    545.7457               565.8602               566.1183
 Red. masses --      3.9740                 3.4898                 3.2493
 Frc consts  --      0.6974                 0.6584                 0.6136
 IR Inten    --      0.6746                 0.1476                18.7870

                     31                     32                     33
                      A                      A                      A
 Frequencies --    623.5141               660.2743               702.3611
 Red. masses --      5.7276                 4.6863                 3.4268
 Frc consts  --      1.3120                 1.2037                 0.9960
 IR Inten    --      8.2978                13.5302                24.8293

                     34                     35                     36
                      A                      A                      A
 Frequencies --    768.7554               800.1350               815.1832
 Red. masses --      3.9957                 1.2231                 4.8673
 Frc consts  --      1.3913                 0.4614                 1.9057
 IR Inten    --      6.3594                59.4503                35.4523

                     37                     38                     39
                      A                      A                      A
 Frequencies --    826.1007               828.3922               843.8354
 Red. masses --      2.8126                 1.3509                 1.4529
 Frc consts  --      1.1309                 0.5462                 0.6095
 IR Inten    --     14.6625                36.6549                18.1365

                     40                     41                     42
                      A                      A                      A
 Frequencies --    864.4779               909.2116               920.7080
 Red. masses --      3.2621                 1.6930                 1.3949
 Frc consts  --      1.4363                 0.8246                 0.6967
 IR Inten    --     33.4085               253.1118                94.0029

                     43                     44                     45
                      A                      A                      A
 Frequencies --    946.4554               953.2327               961.5937
 Red. masses --      1.3395                 2.0225                 1.9074
 Frc consts  --      0.7070                 1.0828                 1.0391
 IR Inten    --      0.0957                10.8623                 5.1888

                     46                     47                     48
                      A                      A                      A
 Frequencies --    988.1495              1003.6446              1032.9302
 Red. masses --      1.1981                 1.3196                 1.6434
 Frc consts  --      0.6893                 0.7832                 1.0331
 IR Inten    --      0.0012                 0.5780                12.3340

                     49                     50                     51
                      A                      A                      A
 Frequencies --   1053.2956              1060.3859              1095.1278
 Red. masses --      1.3274                 1.3451                 1.4662
 Frc consts  --      0.8677                 0.8911                 1.0360
 IR Inten    --      4.6013                 3.2017                 4.4665

                     52                     53                     54
                      A                      A                      A
 Frequencies --   1113.1966              1169.0337              1204.0138
 Red. masses --      2.4374                 1.7610                 2.7367
 Frc consts  --      1.7796                 1.4179                 2.3374
 IR Inten    --     44.3481                38.8164               155.4062

                     55                     56                     57
                      A                      A                      A
 Frequencies --   1218.8601              1228.3717              1234.7617
 Red. masses --      1.4309                 2.3569                 2.5179
 Frc consts  --      1.2525                 2.0953                 2.2618
 IR Inten    --      0.3732                 0.5279                 0.4725

                     58                     59                     60
                      A                      A                      A
 Frequencies --   1246.1630              1287.3793              1310.9639
 Red. masses --      2.1431                 2.5840                 1.8160
 Frc consts  --      1.9609                 2.5232                 1.8388
 IR Inten    --      5.1116                14.5465                41.2251

                     61                     62                     63
                      A                      A                      A
 Frequencies --   1338.5816              1346.2241              1377.2665
 Red. masses --      1.2093                 1.2106                 3.1854
 Frc consts  --      1.2766                 1.2926                 3.5600
 IR Inten    --     45.8560                30.8061                19.2406

                     64                     65                     66
                      A                      A                      A
 Frequencies --   1442.7576              1447.8448              1452.9523
 Red. masses --      1.1837                 1.1806                 1.8663
 Frc consts  --      1.4517                 1.4582                 2.3213
 IR Inten    --      3.8236                 8.6890                66.3581

                     67                     68                     69
                      A                      A                      A
 Frequencies --   1468.1843              1471.0128              1503.5578
 Red. masses --      1.4017                 1.2880                 1.0553
 Frc consts  --      1.7802                 1.6421                 1.4056
 IR Inten    --      9.6756                29.3184                 0.0181

                     70                     71                     72
                      A                      A                      A
 Frequencies --   1512.4166              1516.5560              1517.4554
 Red. masses --      1.0622                 1.0582                 1.7660
 Frc consts  --      1.4316                 1.4340                 2.3960
 IR Inten    --      3.4202                 3.9308                11.3238

                     73                     74                     75
                      A                      A                      A
 Frequencies --   1522.0902              1528.3205              1531.0697
 Red. masses --      1.0615                 1.0505                 1.0501
 Frc consts  --      1.4489                 1.4457                 1.4504
 IR Inten    --      8.1202                 0.8338                 0.8554

                     76                     77                     78
                      A                      A                      A
 Frequencies --   1532.2561              1533.1747              1542.3416
 Red. masses --      1.0518                 1.0455                 1.1673
 Frc consts  --      1.4550                 1.4479                 1.6360
 IR Inten    --      0.0169                12.2115                 4.6259

                     79                     80                     81
                      A                      A                      A
 Frequencies --   1547.2208              1547.9007              1551.8631
 Red. masses --      1.0499                 1.0994                 1.0593
 Frc consts  --      1.4809                 1.5520                 1.5030
 IR Inten    --      7.1278                 9.9010                16.2872

                     82                     83                     84
                      A                      A                      A
 Frequencies --   1631.0265              1650.3846              3013.7682
 Red. masses --      4.9487                 6.3453                 1.0433
 Frc consts  --      7.7565                10.1829                 5.5830
 IR Inten    --     19.8181                 9.8062                38.1924

                     85                     86                     87
                      A                      A                      A
 Frequencies --   3014.1538              3015.7444              3020.8777
 Red. masses --      1.0414                 1.0407                 1.0424
 Frc consts  --      5.5746                 5.5764                 5.6045
 IR Inten    --     30.2424                40.7855               130.1267

                     88                     89                     90
                      A                      A                      A
 Frequencies --   3050.2586              3051.4137              3065.2930
 Red. masses --      1.0343                 1.0343                 1.0989
 Frc consts  --      5.6701                 5.6742                 6.0837
 IR Inten    --     18.4411                19.0297                26.6235

                     91                     92                     93
                      A                      A                      A
 Frequencies --   3083.0299              3084.6837              3089.7820
 Red. masses --      1.0918                 1.0905                 1.0895
 Frc consts  --      6.1143                 6.1137                 6.1283
 IR Inten    --      9.0201                28.5381               102.5577

                     94                     95                     96
                      A                      A                      A
 Frequencies --   3113.0606              3119.7475              3121.3872
 Red. masses --      1.1001                 1.0982                 1.0974
 Frc consts  --      6.2811                 6.2973                 6.2997
 IR Inten    --     42.4091                16.7016                93.1380

                     97                     98                     99
                      A                      A                      A
 Frequencies --   3130.2085              3130.6271              3131.5586
 Red. masses --      1.0993                 1.0989                 1.0940
 Frc consts  --      6.3464                 6.3458                 6.3211
 IR Inten    --      8.0084                34.3109                15.5591

                    100                    101                    102
                      A                      A                      A
 Frequencies --   3153.4689              3154.4601              3190.0596
 Red. masses --      1.0985                 1.0980                 1.0874
 Frc consts  --      6.4360                 6.4375                 6.5199
 IR Inten    --      1.8158                23.1252                12.6637

                    103                    104                    105
                      A                      A                      A
 Frequencies --   3209.6693              3233.3267              3663.8544
 Red. masses --      1.0927                 1.0935                 1.0652
 Frc consts  --      6.6326                 6.7357                 8.4245
 IR Inten    --     30.9147                26.7451                56.7603

 - Thermochemistry -
 -------------------
 Temperature   298.150 Kelvin.  Pressure   1.00000 Atm.
 Atom     1 has atomic number  6 and mass  12.00000

 Molecular mass:   222.14399 amu.
 Principal axes and moments of inertia in atomic units:
                           1         2         3
     Eigenvalues --  1960.511705198.939796161.19267
           X            0.99995   0.00991   0.00000
           Y           -0.00991   0.99995   0.00000
           Z           -0.00000  -0.00000   1.00000
 This molecule is an asymmetric top.
 Rotational symmetry number  1.
 Warning -- assumption of classical behavior for rotation
           may cause significant error
 Rotational temperatures (Kelvin)      0.04418     0.01666     0.01406
 Rotational constants (GHZ):           0.92055     0.34714     0.29292
 Zero-point vibrational energy     845184.0 (Joules/Mol)
                                  202.00383 (Kcal/Mol)
 Warning -- explicit consideration of  30 degrees of freedom as
           vibrations may cause significant error
 Vibrational temperatures:     49.54    86.25   105.69   146.07   186.70
          (Kelvin)            192.72   223.84   226.57   249.06   267.96
                              269.94   304.64   308.04   318.86   334.98
                              380.56   387.65   415.54   438.76   455.23
                              458.00   483.25   556.06   588.04   607.99
                              696.32   761.43   785.21   814.15   814.52
                              897.10   949.99  1010.54  1106.07  1151.22
                             1172.87  1188.57  1191.87  1214.09  1243.79
                             1308.15  1324.69  1361.74  1371.49  1383.52
                             1421.73  1444.02  1486.16  1515.46  1525.66
                             1575.64  1601.64  1681.98  1732.31  1753.67
                             1767.35  1776.55  1792.95  1852.25  1886.18
                             1925.92  1936.92  1981.58  2075.81  2083.13
                             2090.47  2112.39  2116.46  2163.28  2176.03
                             2181.99  2183.28  2189.95  2198.91  2202.87
                             2204.57  2205.90  2219.09  2226.11  2227.08
                             2232.78  2346.68  2374.54  4336.14  4336.70
                             4338.98  4346.37  4388.64  4390.30  4410.27
                             4435.79  4438.17  4445.51  4479.00  4488.62
                             4490.98  4503.67  4504.27  4505.61  4537.14
                             4538.56  4589.78  4618.00  4652.04  5271.47

 Zero-point correction=                           0.321914 (Hartree/Particle)
 Thermal correction to Energy=                    0.340886
 Thermal correction to Enthalpy=                  0.341830
 Thermal correction to Gibbs Free Energy=         0.276410
 Sum of electronic and zero-point Energies=           -872.907772
 Sum of electronic and thermal Energies=              -872.888799
 Sum of electronic and thermal Enthalpies=            -872.887855
 Sum of electronic and thermal Free Energies=         -872.953275

                     E (Thermal)             CV                S
                      KCal/Mol        Cal/Mol-Kelvin    Cal/Mol-Kelvin
 Total                  213.909             71.044            137.688
 Electronic               0.000              0.000              0.000
 Translational            0.889              2.981             42.097
 Rotational               0.889              2.981             32.507
 Vibrational            212.132             65.083             63.084
 Vibration     1          0.594              1.983              5.556
 Vibration     2          0.597              1.973              4.459
 Vibration     3          0.599              1.967              4.058
 Vibration     4          0.604              1.948              3.425
 Vibration     5          0.612              1.924              2.950
 Vibration     6          0.613              1.919              2.889
 Vibration     7          0.620              1.896              2.603
 Vibration     8          0.621              1.894              2.580
 Vibration     9          0.627              1.876              2.401
 Vibration    10          0.632              1.859              2.265
 Vibration    11          0.632              1.857              2.251
 Vibration    12          0.643              1.823              2.029
 Vibration    13          0.644              1.819              2.008
 Vibration    14          0.648              1.808              1.946
 Vibration    15          0.654              1.791              1.857
 Vibration    16          0.671              1.738              1.632
 Vibration    17          0.674              1.729              1.600
 Vibration    18          0.685              1.695              1.481
 Vibration    19          0.696              1.664              1.390
 Vibration    20          0.703              1.642              1.329
 Vibration    21          0.705              1.639              1.319
 Vibration    22          0.717              1.604              1.232
 Vibration    23          0.755              1.499              1.014
 Vibration    24          0.773              1.451              0.931
 Vibration    25          0.785              1.421              0.883
 Vibration    26          0.840              1.286              0.699
 Vibration    27          0.884              1.185              0.589
 Vibration    28          0.901              1.149              0.553
 Vibration    29          0.922              1.105              0.512
 Vibration    30          0.922              1.105              0.512

                           ! Non-Optimized Parameters !
 Normal termination of Gaussian 16 at Thu Sep 23 18:45:25 2021.
