 Gaussian 16, Revision C.01,
 Gaussian 16:  ES64L-G16RevC.01  3-Jul-2019

 -------------------------------------------------
 # opt freq b3lyp/6-31g scrf=(smd,solvent=toluene)
 -------------------------------------------------

 ------
 BrBrbz
 ------
 Symbolic Z-matrix:
 Charge =  0 Multiplicity = 1

 SCF Done:  E(RB3LYP) =  -5488.64781101     A.U. after   14 cycles
 SCF Done:  E(RB3LYP) =  -5488.65431813     A.U. after   11 cycles
 SCF Done:  E(RB3LYP) =  -5488.65655759     A.U. after   11 cycles
 SCF Done:  E(RB3LYP) =  -5488.65701001     A.U. after   10 cycles
 SCF Done:  E(RB3LYP) =  -5488.65724646     A.U. after   10 cycles
 SCF Done:  E(RB3LYP) =  -5488.65728500     A.U. after    9 cycles
 SCF Done:  E(RB3LYP) =  -5488.65728994     A.U. after    8 cycles
 SCF Done:  E(RB3LYP) =  -5488.65729008     A.U. after    7 cycles
 SCF Done:  E(RB3LYP) =  -5488.65729011     A.U. after    6 cycles
 Optimization completed.
    -- Stationary point found.
 Normal termination of Gaussian 16 at Thu Sep 23 15:00:11 2021.

 -----------------------------------------------------------------
 #N Geom=AllCheck Guess=TCheck SCRF=Check GenChk RB3LYP/6-31G Freq
 -----------------------------------------------------------------

 Structure from the checkpoint file:  "BrBrbz.chk"
 ------
 BrBrbz
 ------
 Charge =  0 Multiplicity = 1

                         Standard orientation:
 ---------------------------------------------------------------------
 Center     Atomic      Atomic             Coordinates (Angstroms)
 Number     Number       Type             X           Y           Z
 ---------------------------------------------------------------------
      1          6           0       -0.251389   -0.783063    0.000006
      2          6           0        1.008807   -0.192283    0.000020
      3          6           0        1.180396    1.194295    0.000026
      4          6           0        0.049293    2.036822    0.000011
      5          6           0       -1.219849    1.446866    0.000012
      6          6           0       -1.356354    0.059728    0.000009
      7          1           0       -0.361209   -1.859000   -0.000002
      8          1           0       -2.099222    2.079603    0.000018
      9          6           0        0.230468    3.532126   -0.000017
     10          1           0        0.796253    3.862981    0.879015
     11          1           0        0.795900    3.862999   -0.879275
     12          1           0       -0.736845    4.042208    0.000177
     13          8           0        2.416881    1.807259   -0.000006
     14          1           0        3.138858    1.143807    0.000013
     15         35           0       -3.141650   -0.721290   -0.000004
     16         35           0        2.606878   -1.317499   -0.000005
 ---------------------------------------------------------------------

 SCF Done:  E(RB3LYP) =  -5488.65729011     A.U. after    1 cycles

 The electronic state is 1-A.
 Alpha  occ. eigenvalues -- -482.79980-482.77902 -61.78044 -61.76031 -56.32825
 Alpha  occ. eigenvalues --  -56.32412 -56.32355 -56.30857 -56.30418 -56.30392
 Alpha  occ. eigenvalues --  -19.18724 -10.27339 -10.26139 -10.25292 -10.21761
 Alpha  occ. eigenvalues --  -10.21720 -10.20756 -10.18022  -8.55459  -8.53521
 Alpha  occ. eigenvalues --   -6.52404  -6.51042  -6.50920  -6.50534  -6.49071
 Alpha  occ. eigenvalues --   -6.49055  -2.64029  -2.63664  -2.63546  -2.62461
 Alpha  occ. eigenvalues --   -2.62459  -2.62152  -2.61733  -2.61701  -2.60535
 Alpha  occ. eigenvalues --   -2.60534  -1.07982  -0.89564  -0.82771  -0.81081
 Alpha  occ. eigenvalues --   -0.76203  -0.72965  -0.70524  -0.62810  -0.60091
 Alpha  occ. eigenvalues --   -0.56320  -0.51526  -0.47289  -0.44540  -0.44296
 Alpha  occ. eigenvalues --   -0.43393  -0.40040  -0.39809  -0.39768  -0.37043
 Alpha  occ. eigenvalues --   -0.36603  -0.35828  -0.33235  -0.31362  -0.29326
 Alpha  occ. eigenvalues --   -0.29205  -0.25911  -0.23113
 Alpha virt. eigenvalues --   -0.03364  -0.01998  -0.00951   0.00951   0.07579
 Alpha virt. eigenvalues --    0.12151   0.13309   0.14187   0.15585   0.17996
 Alpha virt. eigenvalues --    0.19292   0.21267   0.24003   0.29353   0.30211

 Mulliken charges:
               1
     1  C   -0.077261
     2  C   -0.303744
     3  C    0.271861
     4  C    0.116642
     5  C   -0.123270
     6  C   -0.290641
     7  H    0.182835
     8  H    0.166428
     9  C   -0.461679
    10  H    0.172510
    11  H    0.172509
    12  H    0.150623
    13  O   -0.611455
    14  H    0.379558
    15  Br   0.119529
    16  Br   0.135556
 Sum of Mulliken charges =   0.00000

 Dipole moment (field-independent basis, Debye):
    X=              0.9952    Y=              0.9173    Z=              0.0000  Tot=              1.3535
 Quadrupole moment (field-independent basis, Debye-Ang):
   XX=            -82.2344   YY=            -78.6742   ZZ=            -85.4636
   XY=             -3.5668   XZ=              0.0001   YZ=             -0.0000

  Exact polarizability:     162.901       1.224     132.851      -0.000      -0.000      39.057
 Approx polarizability:     216.762       4.443     176.670      -0.000      -0.000      46.956

                      1                      2                      3
                      A                      A                      A
 Frequencies --    113.0744               122.9643               129.9582
 Red. masses --      4.4315                21.8312                 4.1901
 Frc consts  --      0.0334                 0.1945                 0.0417
 IR Inten    --      0.1692                 0.2478                 0.4794

                      4                      5                      6
                      A                      A                      A
 Frequencies --    142.7560               200.1165               230.7258
 Red. masses --      1.1989                 5.0106                 3.1815
 Frc consts  --      0.0144                 0.1182                 0.0998
 IR Inten    --      0.0688                 0.3843                 2.5926

                      7                      8                      9
                      A                      A                      A
 Frequencies --    263.2319               311.9704               330.8460
 Red. masses --     14.9017                 5.1277                 5.8846
 Frc consts  --      0.6084                 0.2940                 0.3795
 IR Inten    --      3.7806                 1.7516                11.3513

                     10                     11                     12
                      A                      A                      A
 Frequencies --    360.5618               491.4183               503.9715
 Red. masses --      6.0117                 1.1361                 4.2292
 Frc consts  --      0.4605                 0.1617                 0.6329
 IR Inten    --      3.6090               158.4846                 0.3713

                     13                     14                     15
                      A                      A                      A
 Frequencies --    541.7406               575.6013               607.4765
 Red. masses --      3.5474                 4.7377                 3.4599
 Frc consts  --      0.6134                 0.9248                 0.7523
 IR Inten    --      7.3651                22.7515                 3.2719

                     16                     17                     18
                      A                      A                      A
 Frequencies --    679.7382               799.7301               829.7326
 Red. masses --      9.2600                 3.8701                 6.0521
 Frc consts  --      2.5208                 1.4583                 2.4549
 IR Inten    --     83.1984                23.1184                13.3200

                     19                     20                     21
                      A                      A                      A
 Frequencies --    895.3043               964.6324               973.1973
 Red. masses --      6.5757                 1.3583                 1.6058
 Frc consts  --      3.1055                 0.7447                 0.8961
 IR Inten    --     10.6852                 0.0000                21.5059

                     22                     23                     24
                      A                      A                      A
 Frequencies --   1049.9463              1108.0396              1144.2906
 Red. masses --      1.5641                 1.5486                 1.8688
 Frc consts  --      1.0159                 1.1202                 1.4417
 IR Inten    --     13.2262                 6.8154                53.8714

                     25                     26                     27
                      A                      A                      A
 Frequencies --   1170.7886              1258.3083              1279.9041
 Red. masses --      2.7244                 2.3295                 2.0952
 Frc consts  --      2.2003                 2.1731                 2.0222
 IR Inten    --    161.6534                54.6350                68.8218

                     28                     29                     30
                      A                      A                      A
 Frequencies --   1347.3830              1393.6366              1451.5734
 Red. masses --      1.9712                 3.3137                 3.2017
 Frc consts  --      2.1084                 3.7919                 3.9747
 IR Inten    --     11.7315                27.8866                51.9012

                     31                     32                     33
                      A                      A                      A
 Frequencies --   1467.0327              1509.8390              1518.6973
 Red. masses --      1.2359                 2.7106                 1.0462
 Frc consts  --      1.5671                 3.6406                 1.4216
 IR Inten    --     12.0227                74.9943                11.3502

                     34                     35                     36
                      A                      A                      A
 Frequencies --   1533.8457              1632.2780              1651.3959
 Red. masses --      1.2197                 6.1190                 6.8265
 Frc consts  --      1.6907                 9.6055                10.9686
 IR Inten    --     86.6664                21.9558                 8.6012

                     37                     38                     39
                      A                      A                      A
 Frequencies --   3053.1233              3112.5424              3144.9287
 Red. masses --      1.0363                 1.0982                 1.1002
 Frc consts  --      5.6916                 6.2686                 6.4113
 IR Inten    --     23.8916                15.1638                18.1150

                     40                     41                     42
                      A                      A                      A
 Frequencies --   3238.3923              3257.4953              3595.3376
 Red. masses --      1.0921                 1.0937                 1.0645
 Frc consts  --      6.7479                 6.8377                 8.1073
 IR Inten    --      1.5887                 1.7261                80.6955

 - Thermochemistry -
 -------------------
 Temperature   298.150 Kelvin.  Pressure   1.00000 Atm.
 Atom     1 has atomic number  6 and mass  12.00000

 Molecular mass:   263.87854 amu.
 Principal axes and moments of inertia in atomic units:
                           1         2         3
     Eigenvalues --  1904.174895345.531817238.58007
           X            0.99989   0.01477  -0.00000
           Y           -0.01477   0.99989  -0.00000
           Z            0.00000   0.00000   1.00000
 This molecule is an asymmetric top.
 Rotational symmetry number  1.
 Warning -- assumption of classical behavior for rotation
           may cause significant error
 Rotational temperatures (Kelvin)      0.04549     0.01620     0.01197
 Rotational constants (GHZ):           0.94778     0.33762     0.24932
 Zero-point vibrational energy     298991.8 (Joules/Mol)
                                   71.46076 (Kcal/Mol)
 Warning -- explicit consideration of  15 degrees of freedom as
           vibrations may cause significant error
 Vibrational temperatures:    162.69   176.92   186.98   205.39   287.92
          (Kelvin)            331.96   378.73   448.86   476.01   518.77
                              707.04   725.10   779.44   828.16   874.02
                              977.99  1150.63  1193.80  1288.14  1387.89
                             1400.21  1510.64  1594.22  1646.38  1684.50
                             1810.42  1841.50  1938.58  2005.13  2088.49
                             2110.73  2172.32  2185.07  2206.86  2348.48
                             2375.99  4392.76  4478.25  4524.85  4659.32
                             4686.81  5172.89

 Zero-point correction=                           0.113880 (Hartree/Particle)
 Thermal correction to Energy=                    0.123681
 Thermal correction to Enthalpy=                  0.124626
 Thermal correction to Gibbs Free Energy=         0.076666
 Sum of electronic and zero-point Energies=          -5488.543410
 Sum of electronic and thermal Energies=             -5488.533609
 Sum of electronic and thermal Enthalpies=           -5488.532665
 Sum of electronic and thermal Free Energies=        -5488.580625

                     E (Thermal)             CV                S
                      KCal/Mol        Cal/Mol-Kelvin    Cal/Mol-Kelvin
 Total                   77.611             35.182            100.940
 Electronic               0.000              0.000              0.000
 Translational            0.889              2.981             42.610
 Rotational               0.889              2.981             32.666
 Vibrational             75.834             29.220             25.664
 Vibration     1          0.607              1.939              3.215
 Vibration     2          0.610              1.930              3.053
 Vibration     3          0.612              1.923              2.947
 Vibration     4          0.616              1.910              2.767
 Vibration     5          0.638              1.840              2.132
 Vibration     6          0.652              1.794              1.873
 Vibration     7          0.670              1.740              1.640
 Vibration     8          0.700              1.651              1.352
 Vibration     9          0.713              1.614              1.256
 Vibration    10          0.735              1.554              1.120
 Vibration    11          0.847              1.269              0.680
 Vibration    12          0.859              1.241              0.648
 Vibration    13          0.897              1.158              0.562
 Vibration    14          0.932              1.084              0.494
 Vibration    15          0.966              1.016              0.437

 Optimization completed.
    -- Stationary point found.
 Normal termination of Gaussian 16 at Thu Sep 23 15:01:36 2021.
