 Gaussian 16, Revision C.01,
 Gaussian 16:  ES64L-G16RevC.01  3-Jul-2019

 ----------------------------------------------------
 # opt freq b3lyp/6-31g(d) scrf=(smd,solvent=toluene)
 ----------------------------------------------------

 -----
 MeHbz
 -----
 Symbolic Z-matrix:
 Charge =  0 Multiplicity = 1

 SCF Done:  E(RB3LYP) =  -386.098604784     A.U. after   12 cycles
 SCF Done:  E(RB3LYP) =  -386.104558136     A.U. after   11 cycles
 SCF Done:  E(RB3LYP) =  -386.105075058     A.U. after   10 cycles
 SCF Done:  E(RB3LYP) =  -386.105288922     A.U. after   10 cycles
 SCF Done:  E(RB3LYP) =  -386.105665126     A.U. after   11 cycles
 SCF Done:  E(RB3LYP) =  -386.106235993     A.U. after   10 cycles
 SCF Done:  E(RB3LYP) =  -386.110419981     A.U. after   13 cycles
 SCF Done:  E(RB3LYP) =  -386.111165573     A.U. after   12 cycles
 SCF Done:  E(RB3LYP) =  -386.111304911     A.U. after   10 cycles
 SCF Done:  E(RB3LYP) =  -386.111330039     A.U. after    8 cycles
 SCF Done:  E(RB3LYP) =  -386.111332136     A.U. after    7 cycles
 SCF Done:  E(RB3LYP) =  -386.111332850     A.U. after    7 cycles
 SCF Done:  E(RB3LYP) =  -386.111332952     A.U. after    7 cycles
 Optimization completed.
    -- Stationary point found.
 Normal termination of Gaussian 16 at Tue Nov 16 10:10:33 2021.

 --------------------------------------------------------------------
 #N Geom=AllCheck Guess=TCheck SCRF=Check GenChk RB3LYP/6-31G(d) Freq
 --------------------------------------------------------------------

 Structure from the checkpoint file:  "MeHbz.chk"
 -----
 MeHbz
 -----
 Charge =  0 Multiplicity = 1

                         Standard orientation:
 ---------------------------------------------------------------------
 Center     Atomic      Atomic             Coordinates (Angstroms)
 Number     Number       Type             X           Y           Z
 ---------------------------------------------------------------------
      1          6           0       -1.178190    1.441805   -0.000080
      2          6           0       -1.222146    0.042665   -0.000046
      3          6           0       -0.002773   -0.657284   -0.000006
      4          6           0        1.236824    0.005908    0.000046
      5          6           0        1.231335    1.403426    0.000023
      6          6           0        0.036382    2.125164   -0.000033
      7          1           0       -2.114784    1.994908   -0.000183
      8          1           0        2.183066    1.930028    0.000132
      9          1           0        0.052873    3.211533   -0.000065
     10          6           0       -2.534145   -0.706876    0.000158
     11          1           0       -2.647642   -1.348330    0.886517
     12          1           0       -3.378516   -0.011418    0.000017
     13          1           0       -2.647829   -1.348636   -0.886021
     14          6           0        2.517308   -0.789739    0.000060
     15          1           0        2.585733   -1.443151    0.878843
     16          1           0        2.585934   -1.442788   -0.878983
     17          1           0        3.388406   -0.126808    0.000299
     18          8           0        0.043274   -2.028292   -0.000132
     19          1           0       -0.861008   -2.379417   -0.000243
 ---------------------------------------------------------------------

 SCF Done:  E(RB3LYP) =  -386.111332952     A.U. after    1 cycles

 The electronic state is 1-A.
 Alpha  occ. eigenvalues --  -19.17208 -10.23644 -10.18893 -10.18674 -10.18454
 Alpha  occ. eigenvalues --  -10.17935 -10.17763 -10.17356 -10.17148  -1.05160
 Alpha  occ. eigenvalues --   -0.84392  -0.77700  -0.74248  -0.68784  -0.67089
 Alpha  occ. eigenvalues --   -0.59809  -0.57335  -0.52886  -0.47877  -0.45532
 Alpha  occ. eigenvalues --   -0.43073  -0.41721  -0.40652  -0.39943  -0.39789
 Alpha  occ. eigenvalues --   -0.38022  -0.36893  -0.36771  -0.33882  -0.32502
 Alpha  occ. eigenvalues --   -0.32288  -0.23209  -0.20939
 Alpha virt. eigenvalues --    0.01106   0.01944   0.07278   0.10957   0.13331
 Alpha virt. eigenvalues --    0.14795   0.14797   0.15829   0.17001   0.18246
 Alpha virt. eigenvalues --    0.19537   0.19774   0.21973   0.23895   0.25855

 Mulliken charges:
               1
     1  C   -0.214813
     2  C    0.159921
     3  C    0.205231
     4  C    0.142455
     5  C   -0.211018
     6  C   -0.141351
     7  H    0.131072
     8  H    0.130799
     9  H    0.132609
    10  C   -0.584822
    11  H    0.168780
    12  H    0.176902
    13  H    0.168738
    14  C   -0.521647
    15  H    0.166726
    16  H    0.166726
    17  H    0.153282
    18  O   -0.653218
    19  H    0.423626
 Sum of Mulliken charges =  -0.00000

 Dipole moment (field-independent basis, Debye):
    X=             -1.6430    Y=             -0.4993    Z=             -0.0000  Tot=              1.7172
 Quadrupole moment (field-independent basis, Debye-Ang):
   XX=            -46.8448   YY=            -50.2403   ZZ=            -56.2357
   XY=              3.8117   XZ=              0.0006   YZ=              0.0002

  Exact polarizability:     125.908       1.225     119.235       0.003       0.000      46.978
 Approx polarizability:     158.373       0.231     166.640       0.004       0.000      62.096

                      1                      2                      3
                      A                      A                      A
 Frequencies --    125.5230               133.8216               148.6014
 Red. masses --      1.5405                 1.0350                 1.5940
 Frc consts  --      0.0143                 0.0109                 0.0207
 IR Inten    --      0.0099                 0.7179                 1.3916

                      4                      5                      6
                      A                      A                      A
 Frequencies --    229.0086               277.8289               285.8120
 Red. masses --      2.6960                 2.6261                 3.9717
 Frc consts  --      0.0833                 0.1194                 0.1912
 IR Inten    --      8.1034                 1.6359                 3.3629

                      7                      8                      9
                      A                      A                      A
 Frequencies --    316.4654               328.2100               486.6962
 Red. masses --      3.4591                 1.1420                 3.3224
 Frc consts  --      0.2041                 0.0725                 0.4637
 IR Inten    --      3.7224               112.8787                 3.8321

                     10                     11                     12
                      A                      A                      A
 Frequencies --    499.4046               507.2606               560.2084
 Red. masses --      5.7399                 3.3408                 4.8849
 Frc consts  --      0.8434                 0.5065                 0.9032
 IR Inten    --      1.0958                 0.7326                 5.1901

                     13                     14                     15
                      A                      A                      A
 Frequencies --    564.5727               683.0292               735.5877
 Red. masses --      3.7846                 5.0216                 5.2446
 Frc consts  --      0.7107                 1.3803                 1.6720
 IR Inten    --      0.0036                 1.8018                 5.7108

                     16                     17                     18
                      A                      A                      A
 Frequencies --    779.9879               842.8463               907.9731
 Red. masses --      1.2142                 4.9352                 1.3031
 Frc consts  --      0.4352                 2.0656                 0.6329
 IR Inten    --     37.6788                12.2621                 0.0048

                     19                     20                     21
                      A                      A                      A
 Frequencies --    922.5034               956.8432              1014.3457
 Red. masses --      2.6117                 1.2549                 1.6123
 Frc consts  --      1.3095                 0.6769                 0.9774
 IR Inten    --     13.0540                 0.8837                 6.8390

                     22                     23                     24
                      A                      A                      A
 Frequencies --   1052.7114              1070.4992              1077.0782
 Red. masses --      1.6024                 1.4685                 1.4753
 Frc consts  --      1.0463                 0.9915                 1.0084
 IR Inten    --     16.0103                 4.3656                 0.7138

                     25                     26                     27
                      A                      A                      A
 Frequencies --   1123.6254              1190.7894              1239.9574
 Red. masses --      1.6761                 1.1577                 1.7982
 Frc consts  --      1.2468                 0.9672                 1.6289
 IR Inten    --     31.2303                 2.7896               156.7364

                     28                     29                     30
                      A                      A                      A
 Frequencies --   1257.0800              1304.4303              1326.6140
 Red. masses --      5.1452                 2.1794                 2.0650
 Frc consts  --      4.7905                 2.1849                 2.1413
 IR Inten    --     12.5616                64.3628                 6.0656

                     31                     32                     33
                      A                      A                      A
 Frequencies --   1382.2367              1442.9650              1445.7021
 Red. masses --      2.9230                 1.2482                 1.2959
 Frc consts  --      3.2904                 1.5312                 1.5959
 IR Inten    --     38.5121                 2.0736                 1.1515

                     34                     35                     36
                      A                      A                      A
 Frequencies --   1486.9984              1505.2844              1508.9072
 Red. masses --      1.9535                 1.0443                 1.3672
 Frc consts  --      2.5449                 1.3942                 1.8340
 IR Inten    --     60.5358                 7.6385                 2.0793

                     37                     38                     39
                      A                      A                      A
 Frequencies --   1514.1971              1532.4987              1541.3358
 Red. masses --      1.0423                 1.4464                 1.6500
 Frc consts  --      1.4081                 2.0014                 2.3095
 IR Inten    --      8.0924                53.7016                15.6024

                     40                     41                     42
                      A                      A                      A
 Frequencies --   1654.2199              1668.3362              3019.8289
 Red. masses --      5.4758                 6.4073                 1.0421
 Frc consts  --      8.8285                10.5073                 5.5990
 IR Inten    --     18.3693                 1.0093                39.8516

                     43                     44                     45
                      A                      A                      A
 Frequencies --   3045.7792              3062.8588              3095.8954
 Red. masses --      1.0370                 1.1013                 1.1007
 Frc consts  --      5.6678                 6.0869                 6.2157
 IR Inten    --     37.5003                27.2538                22.8786

                     46                     47                     48
                      A                      A                      A
 Frequencies --   3127.0922              3130.4010              3178.6911
 Red. masses --      1.1021                 1.0955                 1.0859
 Frc consts  --      6.3499                 6.3250                 6.4644
 IR Inten    --     23.8573                14.3336                 0.3130

                     49                     50                     51
                      A                      A                      A
 Frequencies --   3184.8849              3205.7374              3746.1479
 Red. masses --      1.0907                 1.0963                 1.0654
 Frc consts  --      6.5182                 6.6377                 8.8091
 IR Inten    --     35.6263                30.0763                78.1860

 - Thermochemistry -
 -------------------
 Temperature   298.150 Kelvin.  Pressure   1.00000 Atm.
 Atom     1 has atomic number  6 and mass  12.00000

 Molecular mass:   122.07317 amu.
 Principal axes and moments of inertia in atomic units:
                           1         2         3
     Eigenvalues --   793.165881029.162411799.89982
           X            0.99974   0.02262   0.00000
           Y           -0.02262   0.99974  -0.00000
           Z           -0.00000   0.00000   1.00000
 This molecule is an asymmetric top.
 Rotational symmetry number  1.
 Warning -- assumption of classical behavior for rotation
           may cause significant error
 Rotational temperatures (Kelvin)      0.10920     0.08416     0.04812
 Rotational constants (GHZ):           2.27536     1.75360     1.00269
 Zero-point vibrational energy     421260.8 (Joules/Mol)
                                  100.68376 (Kcal/Mol)
 Warning -- explicit consideration of  13 degrees of freedom as
           vibrations may cause significant error
 Vibrational temperatures:    180.60   192.54   213.80   329.49   399.73
          (Kelvin)            411.22   455.32   472.22   700.25   718.53
                              729.83   806.01   812.29   982.73  1058.35
                             1122.23  1212.67  1306.37  1327.28  1376.68
                             1459.42  1514.62  1540.21  1549.68  1616.65
                             1713.28  1784.02  1808.66  1876.78  1908.70
                             1988.73  2076.10  2080.04  2139.46  2165.77
                             2170.98  2178.59  2204.92  2217.64  2380.05
                             2400.36  4344.86  4382.20  4406.77  4454.30
                             4499.19  4503.95  4573.43  4582.34  4612.34
                             5389.87

 Zero-point correction=                           0.160450 (Hartree/Particle)
 Thermal correction to Energy=                    0.169295
 Thermal correction to Enthalpy=                  0.170239
 Thermal correction to Gibbs Free Energy=         0.127355
 Sum of electronic and zero-point Energies=           -385.950883
 Sum of electronic and thermal Energies=              -385.942038
 Sum of electronic and thermal Enthalpies=            -385.941093
 Sum of electronic and thermal Free Energies=         -385.983978

                     E (Thermal)             CV                S
                      KCal/Mol        Cal/Mol-Kelvin    Cal/Mol-Kelvin
 Total                  106.234             33.655             90.258
 Electronic               0.000              0.000              0.000
 Translational            0.889              2.981             40.313
 Rotational               0.889              2.981             28.776
 Vibrational            104.457             27.693             21.169
 Vibration     1          0.610              1.928              3.014
 Vibration     2          0.613              1.920              2.890
 Vibration     3          0.618              1.904              2.690
 Vibration     4          0.652              1.797              1.887
 Vibration     5          0.679              1.714              1.547
 Vibration     6          0.684              1.700              1.499
 Vibration     7          0.703              1.642              1.328
 Vibration     8          0.711              1.619              1.269
 Vibration     9          0.843              1.280              0.692
 Vibration    10          0.855              1.251              0.660
 Vibration    11          0.862              1.234              0.640
 Vibration    12          0.916              1.117              0.523
 Vibration    13          0.920              1.108              0.515

 Optimization completed.
    -- Stationary point found.
 Normal termination of Gaussian 16 at Tue Nov 16 10:14:53 2021.
