 Gaussian 16, Revision C.01,
 Gaussian 16:  ES64L-G16RevC.01  3-Jul-2019

 ----------------------------------------------------
 # opt freq b3lyp/6-31g(d) scrf=(smd,solvent=toluene)
 ----------------------------------------------------

 ---------------
 tbu-tbu benzene
 ---------------
 Symbolic Z-matrix:
 Charge =  0 Multiplicity = 1

 SCF Done:  E(RB3LYP) =  -661.268418943     A.U. after   12 cycles
 SCF Done:  E(RB3LYP) =  -661.286768191     A.U. after   11 cycles
 SCF Done:  E(RB3LYP) =  -661.290297776     A.U. after   10 cycles
 SCF Done:  E(RB3LYP) =  -661.293028448     A.U. after   10 cycles
 SCF Done:  E(RB3LYP) =  -661.293976142     A.U. after   12 cycles
 SCF Done:  E(RB3LYP) =  -661.295271290     A.U. after   10 cycles
 SCF Done:  E(RB3LYP) =  -661.294761704     A.U. after   11 cycles
 SCF Done:  E(RB3LYP) =  -661.296485525     A.U. after   11 cycles
 SCF Done:  E(RB3LYP) =  -661.298728724     A.U. after   13 cycles
 SCF Done:  E(RB3LYP) =  -661.300068173     A.U. after   10 cycles
 SCF Done:  E(RB3LYP) =  -661.301369557     A.U. after   11 cycles
 SCF Done:  E(RB3LYP) =  -661.301545102     A.U. after    9 cycles
 SCF Done:  E(RB3LYP) =  -661.301585125     A.U. after    9 cycles
 SCF Done:  E(RB3LYP) =  -661.301602002     A.U. after    9 cycles
 SCF Done:  E(RB3LYP) =  -661.301612774     A.U. after    8 cycles
 SCF Done:  E(RB3LYP) =  -661.301614502     A.U. after    8 cycles
 SCF Done:  E(RB3LYP) =  -661.301614617     A.U. after    6 cycles
 SCF Done:  E(RB3LYP) =  -661.301614633     A.U. after    6 cycles
 Optimization completed.
    -- Stationary point found.
 Normal termination of Gaussian 16 at Thu Sep 23 10:15:08 2021.

 --------------------------------------------------------------------
 #N Geom=AllCheck Guess=TCheck SCRF=Check GenChk RB3LYP/6-31G(d) Freq
 --------------------------------------------------------------------

 Structure from the checkpoint file:  "tbutbuBz.chk"
 ---------------
 tbu-tbu benzene
 ---------------
 Charge =  0 Multiplicity = 1

                         Standard orientation:
 ---------------------------------------------------------------------
 Center     Atomic      Atomic             Coordinates (Angstroms)
 Number     Number       Type             X           Y           Z
 ---------------------------------------------------------------------
      1          6           0        0.224199   -0.752189   -0.000016
      2          6           0       -1.073274   -0.214684   -0.000027
      3          6           0       -1.174900    1.191208   -0.000004
      4          6           0       -0.032361    2.012823    0.000013
      5          6           0        1.227225    1.414315    0.000013
      6          6           0        1.389981    0.023897    0.000008
      7          1           0        0.324056   -1.828108   -0.000005
      8          1           0        2.098047    2.065289    0.000025
      9          8           0       -2.426687    1.762472   -0.000019
     10          1           0       -2.333392    2.727765   -0.000200
     11          6           0        2.805071   -0.587705   -0.000004
     12          6           0        3.571512   -0.121149   -1.260008
     13          1           0        3.666411    0.969559   -1.300515
     14          1           0        4.584953   -0.542344   -1.272577
     15          1           0        3.059986   -0.444653   -2.174399
     16          6           0        3.571391   -0.121552    1.260231
     17          1           0        3.059777   -0.445367    2.174460
     18          1           0        4.584841   -0.542729    1.272759
     19          1           0        3.666250    0.969146    1.301104
     20          6           0        2.781774   -2.127683   -0.000250
     21          1           0        2.280549   -2.531061    0.887370
     22          1           0        2.280487   -2.530776   -0.887968
     23          1           0        3.808347   -2.512673   -0.000343
     24          6           0       -2.323512   -1.123388    0.000004
     25          6           0       -1.954495   -2.620705   -0.000100
     26          1           0       -1.379680   -2.907143   -0.888581
     27          1           0       -1.379075   -2.907105    0.888001
     28          1           0       -2.873801   -3.217911    0.000220
     29          6           0       -3.173716   -0.859898   -1.266816
     30          1           0       -4.056885   -1.511715   -1.269942
     31          1           0       -3.516005    0.175719   -1.318993
     32          1           0       -2.596359   -1.075883   -2.174250
     33          6           0       -3.173552   -0.860038    1.266960
     34          1           0       -3.515698    0.175614    1.319383
     35          1           0       -4.056797   -1.511751    1.270049
     36          1           0       -2.596121   -1.076276    2.174288
     37          6           0       -0.177509    3.517954    0.000028
     38          1           0       -0.713634    3.887319   -0.886863
     39          1           0       -0.713759    3.887268    0.886861
     40          1           0        0.804002    4.000809    0.000078
 ---------------------------------------------------------------------

 SCF Done:  E(RB3LYP) =  -661.301614633     A.U. after    1 cycles

 The electronic state is 1-A.
 Alpha  occ. eigenvalues --  -19.17023 -10.23495 -10.19404 -10.19265 -10.18673
 Alpha  occ. eigenvalues --  -10.18630 -10.18101 -10.17594 -10.17404 -10.17044
 Alpha  occ. eigenvalues --  -10.16473 -10.16472 -10.16443 -10.16227 -10.15694
 Alpha  occ. eigenvalues --  -10.15693  -1.05010  -0.84935  -0.81071  -0.79729
 Alpha  occ. eigenvalues --   -0.75108  -0.71479  -0.68911  -0.67387  -0.67164
 Alpha  occ. eigenvalues --   -0.66798  -0.66521  -0.60245  -0.59660  -0.54928
 Alpha  occ. eigenvalues --   -0.52779  -0.51376  -0.47853  -0.45760  -0.44308
 Alpha  occ. eigenvalues --   -0.43113  -0.42543  -0.42254  -0.42061  -0.41284
 Alpha  occ. eigenvalues --   -0.40687  -0.40393  -0.39240  -0.38483  -0.38200
 Alpha  occ. eigenvalues --   -0.36729  -0.36581  -0.36197  -0.36103  -0.35556
 Alpha  occ. eigenvalues --   -0.35352  -0.34751  -0.32895  -0.32523  -0.31902
 Alpha  occ. eigenvalues --   -0.31272  -0.30380  -0.30101  -0.29589  -0.23001
 Alpha  occ. eigenvalues --   -0.20290
 Alpha virt. eigenvalues --    0.01096   0.02081   0.07321   0.09009   0.10648
 Alpha virt. eigenvalues --    0.12535   0.13662   0.14089   0.14203   0.14418
 Alpha virt. eigenvalues --    0.15353   0.15432   0.16790   0.16829   0.17487

 Mulliken charges:
               1
     1  C   -0.318998
     2  C    0.151503
     3  C    0.193934
     4  C    0.174475
     5  C   -0.289705
     6  C    0.199749
     7  H    0.133457
     8  H    0.127371
     9  O   -0.657068
    10  H    0.423722
    11  C    0.025711
    12  C   -0.448125
    13  H    0.144064
    14  H    0.139009
    15  H    0.147354
    16  C   -0.448119
    17  H    0.147353
    18  H    0.139010
    19  H    0.144062
    20  C   -0.464440
    21  H    0.147910
    22  H    0.147911
    23  H    0.142108
    24  C    0.041869
    25  C   -0.464267
    26  H    0.146245
    27  H    0.146251
    28  H    0.142473
    29  C   -0.458746
    30  H    0.134127
    31  H    0.166534
    32  H    0.139329
    33  C   -0.458742
    34  H    0.166529
    35  H    0.134132
    36  H    0.139331
    37  C   -0.593777
    38  H    0.169598
    39  H    0.169603
    40  H    0.177266
 Sum of Mulliken charges =  -0.00000

 Dipole moment (field-independent basis, Debye):
    X=              0.6958    Y=              1.7836    Z=             -0.0002  Tot=              1.9145
 Quadrupole moment (field-independent basis, Debye-Ang):
   XX=           -100.0059   YY=            -88.5096   ZZ=           -102.8150
   XY=             -2.3008   XZ=              0.0005   YZ=             -0.0011

  Exact polarizability:     228.824       0.180     207.036       0.001      -0.000     130.259
 Approx polarizability:     278.379      -3.771     261.110       0.001      -0.000     165.060

                      1                      2                      3
                      A                      A                      A
 Frequencies --     40.2667                58.6331                98.1504
 Red. masses --      2.8252                 2.8700                 3.5986
 Frc consts  --      0.0027                 0.0058                 0.0204
 IR Inten    --      0.0001                 0.1785                 0.4815

                      4                      5                      6
                      A                      A                      A
 Frequencies --    114.8521               143.9416               192.1523
 Red. masses --      3.1584                 3.3696                 1.6246
 Frc consts  --      0.0245                 0.0411                 0.0353
 IR Inten    --      0.3385                 0.4176                 5.1538

                      7                      8                      9
                      A                      A                      A
 Frequencies --    206.0679               218.0661               222.0895
 Red. masses --      1.2389                 2.9287                 1.2241
 Frc consts  --      0.0310                 0.0821                 0.0356
 IR Inten    --      2.4181                 0.6892                 4.4898

                     10                     11                     12
                      A                      A                      A
 Frequencies --    229.4059               252.5204               264.2524
 Red. masses --      1.0899                 1.9924                 2.0158
 Frc consts  --      0.0338                 0.0749                 0.0829
 IR Inten    --      1.4900                 0.2438                26.6315

                     13                     14                     15
                      A                      A                      A
 Frequencies --    264.5967               274.8162               294.7061
 Red. masses --      1.3099                 1.0913                 1.2740
 Frc consts  --      0.0540                 0.0486                 0.0652
 IR Inten    --      0.2095                 0.0279                67.4382

                     16                     17                     18
                      A                      A                      A
 Frequencies --    309.0776               329.0838               330.8025
 Red. masses --      2.2273                 2.2336                 3.2913
 Frc consts  --      0.1254                 0.1425                 0.2122
 IR Inten    --      0.1183                 0.6637                 1.1809

                     19                     20                     21
                      A                      A                      A
 Frequencies --    336.8893               349.1449               355.3875
 Red. masses --      1.1522                 3.1044                 1.0739
 Frc consts  --      0.0770                 0.2230                 0.0799
 IR Inten    --      0.3214                 1.1188                 0.1906

                     22                     23                     24
                      A                      A                      A
 Frequencies --    366.2548               374.2017               410.2648
 Red. masses --      3.1829                 2.4403                 2.4634
 Frc consts  --      0.2516                 0.2013                 0.2443
 IR Inten    --      2.2368                 0.3627                 0.2416

                     25                     26                     27
                      A                      A                      A
 Frequencies --    411.5284               441.5924               448.7387
 Red. masses --      2.7495                 2.8490                 3.7098
 Frc consts  --      0.2744                 0.3273                 0.4401
 IR Inten    --      3.2999                 0.7824                 0.0391

                     28                     29                     30
                      A                      A                      A
 Frequencies --    507.5649               543.5008               564.5717
 Red. masses --      3.0389                 3.5232                 2.8727
 Frc consts  --      0.4613                 0.6132                 0.5395
 IR Inten    --      2.1197                 1.8031                 0.2111

                     31                     32                     33
                      A                      A                      A
 Frequencies --    570.0464               615.8534               663.5683
 Red. masses --      4.0270                 3.6524                 3.7842
 Frc consts  --      0.7710                 0.8162                 0.9817
 IR Inten    --      0.0141                 6.4678                 1.7086

                     34                     35                     36
                      A                      A                      A
 Frequencies --    729.6090               758.3564               807.5500
 Red. masses --      5.1832                 5.3844                 3.6808
 Frc consts  --      1.6257                 1.8245                 1.4143
 IR Inten    --      9.1134                 4.5644                 9.7529

                     37                     38                     39
                      A                      A                      A
 Frequencies --    828.8261               905.3947               917.8381
 Red. masses --      3.0876                 1.4373                 2.9204
 Frc consts  --      1.2497                 0.6942                 1.4495
 IR Inten    --      9.0007                15.5761                 8.1420

                     40                     41                     42
                      A                      A                      A
 Frequencies --    918.9878               937.8171               940.8344
 Red. masses --      1.4032                 1.7275                 2.5307
 Frc consts  --      0.6982                 0.8952                 1.3198
 IR Inten    --      0.4806                 1.7845                 3.1867

                     43                     44                     45
                      A                      A                      A
 Frequencies --    942.5349               947.5768               956.1921
 Red. masses --      1.7046                 1.7222                 2.1758
 Frc consts  --      0.8922                 0.9111                 1.1721
 IR Inten    --      2.5631                 0.9770                14.5491

                     46                     47                     48
                      A                      A                      A
 Frequencies --    973.1802               976.8354              1033.4229
 Red. masses --      1.1964                 1.1950                 1.5013
 Frc consts  --      0.6676                 0.6718                 0.9447
 IR Inten    --      0.1872                 0.1344                 3.2747

                     49                     50                     51
                      A                      A                      A
 Frequencies --   1057.4917              1060.2918              1060.6136
 Red. masses --      1.3952                 1.3930                 1.3872
 Frc consts  --      0.9192                 0.9227                 0.9194
 IR Inten    --      0.1011                 4.5303                 0.0001

                     52                     53                     54
                      A                      A                      A
 Frequencies --   1066.2372              1076.2175              1161.5718
 Red. masses --      1.3805                 1.4521                 2.0015
 Frc consts  --      0.9247                 0.9910                 1.5911
 IR Inten    --      0.1586                 1.8887                14.4489

                     55                     56                     57
                      A                      A                      A
 Frequencies --   1188.1501              1236.6090              1237.1781
 Red. masses --      2.2270                 2.6470                 2.6690
 Frc consts  --      1.8523                 2.3849                 2.4069
 IR Inten    --     25.3902                 3.7621                 8.0359

                     58                     59                     60
                      A                      A                      A
 Frequencies --   1237.4819              1241.9085              1248.8039
 Red. masses --      2.6539                 2.6563                 2.2068
 Frc consts  --      2.3945                 2.4138                 2.0277
 IR Inten    --    111.0427                 8.9489               114.7657

                     61                     62                     63
                      A                      A                      A
 Frequencies --   1281.6064              1291.2108              1321.8207
 Red. masses --      2.3647                 2.4639                 3.2038
 Frc consts  --      2.2884                 2.4203                 3.2981
 IR Inten    --     17.7537                27.8504                24.0171

                     64                     65                     66
                      A                      A                      A
 Frequencies --   1331.4316              1383.7086              1422.5840
 Red. masses --      2.4330                 2.1374                 1.2146
 Frc consts  --      2.5411                 2.4111                 1.4482
 IR Inten    --     49.8201                24.3211                 6.4936

                     67                     68                     69
                      A                      A                      A
 Frequencies --   1425.8387              1426.9962              1427.2491
 Red. masses --      1.2767                 1.2177                 1.2338
 Frc consts  --      1.5293                 1.4609                 1.4808
 IR Inten    --      5.4009                 4.1600                 5.0621

                     70                     71                     72
                      A                      A                      A
 Frequencies --   1448.1475              1453.8062              1457.1405
 Red. masses --      1.2672                 1.2952                 1.2371
 Frc consts  --      1.5658                 1.6129                 1.5476
 IR Inten    --      4.6980                14.1091                 0.1555

                     73                     74                     75
                      A                      A                      A
 Frequencies --   1464.1850              1494.5619              1508.8805
 Red. masses --      3.0089                 1.9106                 1.0482
 Frc consts  --      3.8005                 2.5145                 1.4061
 IR Inten    --     27.2419               102.2216                 0.4137

                     76                     77                     78
                      A                      A                      A
 Frequencies --   1510.5145              1513.9097              1517.9044
 Red. masses --      1.0500                 1.0459                 1.0534
 Frc consts  --      1.4116                 1.4123                 1.4300
 IR Inten    --      0.0285                 0.0298                 0.1819

                     79                     80                     81
                      A                      A                      A
 Frequencies --   1521.7445              1523.3431              1524.9568
 Red. masses --      1.0416                 1.0527                 1.0460
 Frc consts  --      1.4211                 1.4392                 1.4332
 IR Inten    --      8.1933                 2.6544                 0.2040

                     82                     83                     84
                      A                      A                      A
 Frequencies --   1529.8940              1530.4034              1533.7094
 Red. masses --      1.0545                 1.0655                 1.0504
 Frc consts  --      1.4542                 1.4703                 1.4558
 IR Inten    --     12.6280                 2.3102                 5.2763

                     85                     86                     87
                      A                      A                      A
 Frequencies --   1538.6498              1543.6487              1546.5224
 Red. masses --      1.0505                 1.1095                 1.2788
 Frc consts  --      1.4653                 1.5576                 1.8020
 IR Inten    --      5.5204                 1.9702                40.7264

                     88                     89                     90
                      A                      A                      A
 Frequencies --   1553.4877              1646.6049              1658.6867
 Red. masses --      1.0666                 5.7589                 5.2974
 Frc consts  --      1.5166                 9.1996                 8.5871
 IR Inten    --      4.8221                 4.1010                 0.2359

                     91                     92                     93
                      A                      A                      A
 Frequencies --   3018.1707              3039.5594              3040.9048
 Red. masses --      1.0425                 1.0359                 1.0355
 Frc consts  --      5.5950                 5.6387                 5.6414
 IR Inten    --     44.5274                33.7832                39.2186

                     94                     95                     96
                      A                      A                      A
 Frequencies --   3041.7444              3041.9420              3049.0309
 Red. masses --      1.0369                 1.0400                 1.0368
 Frc consts  --      5.6524                 5.6698                 5.6787
 IR Inten    --     23.4938                45.0196                34.3679

                     97                     98                     99
                      A                      A                      A
 Frequencies --   3050.1945              3061.1611              3098.9198
 Red. masses --      1.0393                 1.1013                 1.1021
 Frc consts  --      5.6969                 6.0806                 6.2357
 IR Inten    --     53.5118                25.3605                18.5741

                    100                    101                    102
                      A                      A                      A
 Frequencies --   3100.2243              3103.1592              3104.2934
 Red. masses --      1.1017                 1.1016                 1.1020
 Frc consts  --      6.2386                 6.2501                 6.2569
 IR Inten    --     26.6133                 9.2458                 9.9303

                    103                    104                    105
                      A                      A                      A
 Frequencies --   3110.8921              3111.7414              3112.7638
 Red. masses --      1.1013                 1.1011                 1.1029
 Frc consts  --      6.2797                 6.2819                 6.2961
 IR Inten    --    185.5154                55.5095                 0.0094

                    106                    107                    108
                      A                      A                      A
 Frequencies --   3113.1173              3116.7053              3118.4498
 Red. masses --      1.1028                 1.1022                 1.1015
 Frc consts  --      6.2972                 6.3080                 6.3114
 IR Inten    --     66.4725                37.0310                59.7022

                    109                    110                    111
                      A                      A                      A
 Frequencies --   3130.5561              3155.7536              3158.0702
 Red. masses --      1.0950                 1.0974                 1.0967
 Frc consts  --      6.3230                 6.4393                 6.4445
 IR Inten    --     13.5226                 0.1068                30.1373

                    112                    113                    114
                      A                      A                      A
 Frequencies --   3183.6294              3261.5109              3746.5131
 Red. masses --      1.0893                 1.0869                 1.0654
 Frc consts  --      6.5047                 6.8120                 8.8110
 IR Inten    --     23.1401                 5.1579                90.8295

 - Thermochemistry -
 -------------------
 Temperature   298.150 Kelvin.  Pressure   1.00000 Atm.
 Atom     1 has atomic number  6 and mass  12.00000

 Molecular mass:   220.18272 amu.
 Principal axes and moments of inertia in atomic units:
                           1         2         3
     Eigenvalues --  2504.482034768.956516460.04173
           X            0.99994   0.01106   0.00000
           Y           -0.01106   0.99994  -0.00000
           Z           -0.00000   0.00000   1.00000
 This molecule is an asymmetric top.
 Rotational symmetry number  1.
 Warning -- assumption of classical behavior for rotation
           may cause significant error
 Rotational temperatures (Kelvin)      0.03458     0.01816     0.01341
 Rotational constants (GHZ):           0.72060     0.37844     0.27937
 Zero-point vibrational energy     942969.9 (Joules/Mol)
                                  225.37521 (Kcal/Mol)
 Warning -- explicit consideration of  32 degrees of freedom as
           vibrations may cause significant error
 Vibrational temperatures:     57.93    84.36   141.22   165.25   207.10
          (Kelvin)            276.46   296.49   313.75   319.54   330.06
                              363.32   380.20   380.70   395.40   424.02
                              444.69   473.48   475.95   484.71   502.34
                              511.32   526.96   538.39   590.28   592.10
                              635.35   645.63   730.27   781.98   812.29
                              820.17   886.08   954.73  1049.74  1091.11
                             1161.88  1192.50  1302.66  1320.56  1322.22
                             1349.31  1353.65  1356.10  1363.35  1375.75
                             1400.19  1405.45  1486.87  1521.49  1525.52
                             1525.99  1534.08  1548.44  1671.24  1709.48
                             1779.20  1780.02  1780.46  1786.83  1796.75
                             1843.95  1857.76  1901.81  1915.63  1990.85
                             2046.78  2051.46  2053.13  2053.49  2083.56
                             2091.70  2096.50  2106.64  2150.34  2170.94
                             2173.29  2178.18  2183.93  2189.45  2191.75
                             2194.07  2201.18  2201.91  2206.67  2213.77
                             2220.97  2225.10  2235.12  2369.10  2386.48
                             4342.47  4373.25  4375.18  4376.39  4376.68
                             4386.88  4388.55  4404.33  4458.65  4460.53
                             4464.75  4466.39  4475.88  4477.10  4478.57
                             4479.08  4484.24  4486.75  4504.17  4540.43
                             4543.76  4580.53  4692.59  5390.40

 Zero-point correction=                           0.359158 (Hartree/Particle)
 Thermal correction to Energy=                    0.377150
 Thermal correction to Enthalpy=                  0.378095
 Thermal correction to Gibbs Free Energy=         0.315712
 Sum of electronic and zero-point Energies=           -660.942456
 Sum of electronic and thermal Energies=              -660.924464
 Sum of electronic and thermal Enthalpies=            -660.923520
 Sum of electronic and thermal Free Energies=         -660.985903

                     E (Thermal)             CV                S
                      KCal/Mol        Cal/Mol-Kelvin    Cal/Mol-Kelvin
 Total                  236.665             71.268            131.296
 Electronic               0.000              0.000              0.000
 Translational            0.889              2.981             42.071
 Rotational               0.889              2.981             32.712
 Vibrational            234.888             65.306             56.514
 Vibration     1          0.594              1.981              5.246
 Vibration     2          0.596              1.974              4.503
 Vibration     3          0.604              1.950              3.491
 Vibration     4          0.608              1.937              3.185
 Vibration     5          0.616              1.909              2.751
 Vibration     6          0.634              1.851              2.207
 Vibration     7          0.641              1.831              2.078
 Vibration     8          0.646              1.814              1.975
 Vibration     9          0.648              1.807              1.942
 Vibration    10          0.652              1.796              1.884
 Vibration    11          0.664              1.759              1.713
 Vibration    12          0.671              1.738              1.634
 Vibration    13          0.671              1.738              1.631
 Vibration    14          0.677              1.720              1.566
 Vibration    15          0.689              1.684              1.447
 Vibration    16          0.698              1.656              1.367
 Vibration    17          0.712              1.617              1.265
 Vibration    18          0.713              1.614              1.256
 Vibration    19          0.718              1.602              1.227
 Vibration    20          0.726              1.577              1.170
 Vibration    21          0.731              1.564              1.142
 Vibration    22          0.739              1.542              1.095
 Vibration    23          0.745              1.525              1.063
 Vibration    24          0.774              1.448              0.926
 Vibration    25          0.776              1.445              0.921
 Vibration    26          0.801              1.379              0.822
 Vibration    27          0.808              1.364              0.800
 Vibration    28          0.863              1.233              0.639
 Vibration    29          0.899              1.154              0.558
 Vibration    30          0.920              1.108              0.515
 Vibration    31          0.926              1.096              0.504
 Vibration    32          0.975              0.998              0.423

 Optimization completed.
    -- Stationary point found.
 Normal termination of Gaussian 16 at Thu Sep 23 10:30:24 2021.
