 Gaussian 16, Revision C.01,
 Gaussian 16:  ES64L-G16RevC.01  3-Jul-2019

 ----------------------------------------------------
 # opt freq b3lyp/6-31g(d) scrf=(smd,solvent=toluene)
 ----------------------------------------------------

 ------
 HOMebz
 ------
 Symbolic Z-matrix:
 Charge =  0 Multiplicity = 1

 SCF Done:  E(RB3LYP) =  -461.295874054     A.U. after   12 cycles
 SCF Done:  E(RB3LYP) =  -461.303282118     A.U. after   11 cycles
 SCF Done:  E(RB3LYP) =  -461.303831790     A.U. after   10 cycles
 SCF Done:  E(RB3LYP) =  -461.303886773     A.U. after    9 cycles
 SCF Done:  E(RB3LYP) =  -461.303962047     A.U. after   10 cycles
 SCF Done:  E(RB3LYP) =  -461.265332694     A.U. after   12 cycles
 SCF Done:  E(RB3LYP) =  -461.305499381     A.U. after   12 cycles
 SCF Done:  E(RB3LYP) =  -461.255800133     A.U. after   12 cycles
 SCF Done:  E(RB3LYP) =  -461.307929142     A.U. after   12 cycles
 SCF Done:  E(RB3LYP) =  -461.308320379     A.U. after   10 cycles
 SCF Done:  E(RB3LYP) =  -461.311380692     A.U. after   12 cycles
 SCF Done:  E(RB3LYP) =  -461.312779532     A.U. after   10 cycles
 SCF Done:  E(RB3LYP) =  -461.311520422     A.U. after   11 cycles
 SCF Done:  E(RB3LYP) =  -461.312557343     A.U. after   10 cycles
 SCF Done:  E(RB3LYP) =  -461.312845271     A.U. after    6 cycles
 SCF Done:  E(RB3LYP) =  -461.312869630     A.U. after    9 cycles
 SCF Done:  E(RB3LYP) =  -461.312871574     A.U. after    8 cycles
 SCF Done:  E(RB3LYP) =  -461.312871695     A.U. after    7 cycles
 SCF Done:  E(RB3LYP) =  -461.312871720     A.U. after    6 cycles
 Optimization completed.
    -- Stationary point found.
 Normal termination of Gaussian 16 at Thu Sep 23 12:33:59 2021.

 --------------------------------------------------------------------
 #N Geom=AllCheck Guess=TCheck SCRF=Check GenChk RB3LYP/6-31G(d) Freq
 --------------------------------------------------------------------

 Structure from the checkpoint file:  "HOMebz.chk"
 ------
 HOMebz
 ------
 Charge =  0 Multiplicity = 1

                         Standard orientation:
 ---------------------------------------------------------------------
 Center     Atomic      Atomic             Coordinates (Angstroms)
 Number     Number       Type             X           Y           Z
 ---------------------------------------------------------------------
      1          6           0       -0.903038   -1.147315   -0.000016
      2          6           0        0.420902   -1.594244   -0.000006
      3          6           0        1.479682   -0.689721    0.000006
      4          6           0        1.229378    0.697412   -0.000011
      5          6           0       -0.096594    1.129812   -0.000005
      6          6           0       -1.166980    0.225460   -0.000007
      7          1           0       -1.706313   -1.875190   -0.000045
      8          1           0        0.641467   -2.657657   -0.000003
      9          1           0       -0.320454    2.193135   -0.000013
     10          8           0        2.751175   -1.207651   -0.000023
     11          1           0        3.392512   -0.480275    0.000318
     12          8           0       -2.418076    0.783507   -0.000026
     13          6           0        2.374578    1.682512    0.000001
     14          1           0        3.015914    1.570774    0.886371
     15          1           0        3.016110    1.570544   -0.886195
     16          1           0        2.004443    2.711632   -0.000179
     17          6           0       -3.534803   -0.092236    0.000037
     18          1           0       -3.553569   -0.729034    0.895139
     19          1           0       -4.419991    0.548154    0.000072
     20          1           0       -3.553654   -0.729025   -0.895074
 ---------------------------------------------------------------------

 SCF Done:  E(RB3LYP) =  -461.312871720     A.U. after    1 cycles

 The electronic state is 1-A.
 Alpha  occ. eigenvalues --  -19.16774 -19.16674 -10.23408 -10.23398 -10.22912
 Alpha  occ. eigenvalues --  -10.19275 -10.18685 -10.18083 -10.17895 -10.17829
 Alpha  occ. eigenvalues --   -1.05153  -1.04706  -0.84276  -0.76786  -0.74341
 Alpha  occ. eigenvalues --   -0.68788  -0.68102  -0.60097  -0.58365  -0.53356
 Alpha  occ. eigenvalues --   -0.51310  -0.48189  -0.45685  -0.43422  -0.42768
 Alpha  occ. eigenvalues --   -0.42667  -0.40858  -0.39982  -0.38628  -0.38209
 Alpha  occ. eigenvalues --   -0.36241  -0.35103  -0.34175  -0.31682  -0.28639
 Alpha  occ. eigenvalues --   -0.24034  -0.19218
 Alpha virt. eigenvalues --    0.00524   0.03092   0.07462   0.10494   0.11951
 Alpha virt. eigenvalues --    0.14405   0.14552   0.15563   0.15769   0.16716
 Alpha virt. eigenvalues --    0.17958   0.19177   0.20398   0.20632   0.23938

 Mulliken charges:
               1
     1  C   -0.217916
     2  C   -0.183055
     3  C    0.268188
     4  C    0.153758
     5  C   -0.264790
     6  C    0.378091
     7  H    0.145401
     8  H    0.144677
     9  H    0.138111
    10  O   -0.661373
    11  H    0.421168
    12  O   -0.520949
    13  C   -0.582970
    14  H    0.170142
    15  H    0.170143
    16  H    0.179103
    17  C   -0.222256
    18  H    0.156203
    19  H    0.172124
    20  H    0.156201
 Sum of Mulliken charges =  -0.00000

 Dipole moment (field-independent basis, Debye):
    X=             -0.0917    Y=              0.6494    Z=              0.0007  Tot=              0.6559
 Quadrupole moment (field-independent basis, Debye-Ang):
   XX=            -45.5981   YY=            -57.9995   ZZ=            -61.3382
   XY=              8.8894   XZ=              0.0020   YZ=             -0.0002

  Exact polarizability:     145.417       4.944     112.238       0.001       0.001      49.545
 Approx polarizability:     183.899      -3.014     158.804       0.001       0.001      65.174

                      1                      2                      3
                      A                      A                      A
 Frequencies --     75.6006               144.9413               158.8012
 Red. masses --      3.0968                 2.7048                 1.1828
 Frc consts  --      0.0104                 0.0335                 0.0176
 IR Inten    --      5.5369                 0.0550                 3.1702

                      4                      5                      6
                      A                      A                      A
 Frequencies --    207.2044               222.6866               255.8234
 Red. masses --      2.4642                 3.2561                 1.1929
 Frc consts  --      0.0623                 0.0951                 0.0460
 IR Inten    --     18.8280                 4.7337                12.4088

                      7                      8                      9
                      A                      A                      A
 Frequencies --    266.7189               307.2014               384.9239
 Red. masses --      1.2011                 3.1282                 4.2942
 Frc consts  --      0.0503                 0.1739                 0.3749
 IR Inten    --     91.3454                 1.7881                 0.9477

                     10                     11                     12
                      A                      A                      A
 Frequencies --    387.2840               439.3800               452.4160
 Red. masses --      4.9442                 6.1244                 3.1217
 Frc consts  --      0.4369                 0.6966                 0.3765
 IR Inten    --      5.8200                 3.8721                 1.2450

                     13                     14                     15
                      A                      A                      A
 Frequencies --    571.9294               572.3588               588.4192
 Red. masses --      4.6137                 3.7953                 2.9402
 Frc consts  --      0.8892                 0.7325                 0.5998
 IR Inten    --      6.5730                 5.5437                 0.8778

                     16                     17                     18
                      A                      A                      A
 Frequencies --    706.7152               729.6898               782.6176
 Red. masses --      4.3911                 5.9015                 4.8662
 Frc consts  --      1.2921                 1.8514                 1.7560
 IR Inten    --      0.0648                28.8985                26.0734

                     19                     20                     21
                      A                      A                      A
 Frequencies --    821.1258               881.6196               923.6480
 Red. masses --      1.4458                 1.3922                 1.2857
 Frc consts  --      0.5744                 0.6375                 0.6463
 IR Inten    --     34.1556                23.2239                 0.2390

                     22                     23                     24
                      A                      A                      A
 Frequencies --    945.2120              1015.5678              1071.3394
 Red. masses --      4.4737                 1.6645                 1.4650
 Frc consts  --      2.3549                 1.0115                 0.9907
 IR Inten    --      1.3373                 0.9249                 2.7776

                     25                     26                     27
                      A                      A                      A
 Frequencies --   1080.7653              1137.5908              1184.6968
 Red. masses --      2.9529                 1.7856                 1.5206
 Frc consts  --      2.0322                 1.3615                 1.2574
 IR Inten    --    118.9743                30.9628                68.7849

                     28                     29                     30
                      A                      A                      A
 Frequencies --   1187.2357              1211.9793              1238.7096
 Red. masses --      1.2701                 1.3970                 1.5446
 Frc consts  --      1.0548                 1.2090                 1.3964
 IR Inten    --      1.3358                33.0203                21.5478

                     31                     32                     33
                      A                      A                      A
 Frequencies --   1269.0507              1322.9008              1327.3867
 Red. masses --      2.8091                 5.9797                 1.7625
 Frc consts  --      2.6655                 6.1657                 1.8297
 IR Inten    --    357.7194                 5.4744                62.4334

                     34                     35                     36
                      A                      A                      A
 Frequencies --   1396.4880              1443.6139              1476.6104
 Red. masses --      2.7461                 1.2503                 2.6821
 Frc consts  --      3.1553                 1.5352                 3.4456
 IR Inten    --    101.2820                 3.8517                28.6040

                     37                     38                     39
                      A                      A                      A
 Frequencies --   1504.2742              1516.8341              1520.7267
 Red. masses --      1.2693                 1.0421                 1.0475
 Frc consts  --      1.6923                 1.4127                 1.4273
 IR Inten    --     34.6700                 9.0813                 6.1305

                     40                     41                     42
                      A                      A                      A
 Frequencies --   1525.6717              1530.8799              1554.0493
 Red. masses --      1.2858                 1.0958                 2.2237
 Frc consts  --      1.7634                 1.5131                 3.1641
 IR Inten    --     11.7360                64.9684               230.7845

                     43                     44                     45
                      A                      A                      A
 Frequencies --   1647.1573              1688.4992              3024.1724
 Red. masses --      5.8191                 6.3779                 1.0401
 Frc consts  --      9.3020                10.7134                 5.6047
 IR Inten    --      6.9654                 9.7638                85.6535

                     46                     47                     48
                      A                      A                      A
 Frequencies --   3024.6934              3068.1648              3082.9198
 Red. masses --      1.0363                 1.1011                 1.1071
 Frc consts  --      5.5860                 6.1072                 6.1993
 IR Inten    --     19.1705                25.2925                54.0953

                     49                     50                     51
                      A                      A                      A
 Frequencies --   3133.9750              3152.2245              3200.4275
 Red. masses --      1.0960                 1.0998                 1.0904
 Frc consts  --      6.3422                 6.4386                 6.5807
 IR Inten    --     13.7395                32.2178                11.3116

                     52                     53                     54
                      A                      A                      A
 Frequencies --   3206.2422              3230.0882              3748.8527
 Red. masses --      1.0894                 1.0923                 1.0655
 Frc consts  --      6.5984                 6.7149                 8.8230
 IR Inten    --      7.4866                10.0082                79.2227

 - Thermochemistry -
 -------------------
 Temperature   298.150 Kelvin.  Pressure   1.00000 Atm.
 Atom     1 has atomic number  6 and mass  12.00000

 Molecular mass:   138.06808 amu.
 Principal axes and moments of inertia in atomic units:
                           1         2         3
     Eigenvalues --   617.753922111.895722706.80726
           X            0.99921   0.03983   0.00000
           Y           -0.03983   0.99921  -0.00000
           Z           -0.00000   0.00000   1.00000
 This molecule is an asymmetric top.
 Rotational symmetry number  1.
 Warning -- assumption of classical behavior for rotation
           may cause significant error
 Rotational temperatures (Kelvin)      0.14021     0.04101     0.03200
 Rotational constants (GHZ):           2.92146     0.85456     0.66674
 Zero-point vibrational energy     433946.0 (Joules/Mol)
                                  103.71558 (Kcal/Mol)
 Warning -- explicit consideration of  15 degrees of freedom as
           vibrations may cause significant error
 Vibrational temperatures:    108.77   208.54   228.48   298.12   320.40
          (Kelvin)            368.07   383.75   441.99   553.82   557.22
                              632.17   650.93   822.88   823.50   846.60
                             1016.81  1049.86  1126.01  1181.42  1268.45
                             1328.92  1359.95  1461.18  1541.42  1554.98
                             1636.74  1704.51  1708.17  1743.77  1782.23
                             1825.88  1903.36  1909.81  2009.23  2077.04
                             2124.51  2164.32  2182.39  2187.99  2195.10
                             2202.59  2235.93  2369.89  2429.37  4351.11
                             4351.86  4414.40  4435.63  4509.09  4535.35
                             4604.70  4613.07  4647.38  5393.76

 Zero-point correction=                           0.165281 (Hartree/Particle)
 Thermal correction to Energy=                    0.175085
 Thermal correction to Enthalpy=                  0.176029
 Thermal correction to Gibbs Free Energy=         0.130674
 Sum of electronic and zero-point Energies=           -461.147590
 Sum of electronic and thermal Energies=              -461.137787
 Sum of electronic and thermal Enthalpies=            -461.136843
 Sum of electronic and thermal Free Energies=         -461.182198

                     E (Thermal)             CV                S
                      KCal/Mol        Cal/Mol-Kelvin    Cal/Mol-Kelvin
 Total                  109.867             37.041             95.458
 Electronic               0.000              0.000              0.000
 Translational            0.889              2.981             40.680
 Rotational               0.889              2.981             29.647
 Vibrational            108.090             31.080             25.132
 Vibration     1          0.599              1.965              4.002
 Vibration     2          0.616              1.908              2.738
 Vibration     3          0.621              1.893              2.564
 Vibration     4          0.641              1.830              2.068
 Vibration     5          0.648              1.807              1.937
 Vibration     6          0.666              1.753              1.690
 Vibration     7          0.672              1.734              1.617
 Vibration     8          0.697              1.660              1.377
 Vibration     9          0.754              1.502              1.020
 Vibration    10          0.756              1.497              1.011
 Vibration    11          0.799              1.384              0.829
 Vibration    12          0.811              1.356              0.789
 Vibration    13          0.928              1.092              0.501
 Vibration    14          0.929              1.091              0.500
 Vibration    15          0.946              1.056              0.470

 Optimization completed.
    -- Stationary point found.
 Normal termination of Gaussian 16 at Thu Sep 23 12:36:52 2021.
