 Gaussian 16, Revision C.01,
 Gaussian 16:  ES64L-G16RevC.01  3-Jul-2019

 ----------------------------------------------------
 # opt freq b3lyp/6-31g(d) scrf=(smd,solvent=toluene)
 ----------------------------------------------------

 --
 a5
 --
 Symbolic Z-matrix:
 Charge =  0 Multiplicity = 1

 SCF Done:  E(RB3LYP) =  -590.589155473     A.U. after   13 cycles
 SCF Done:  E(RB3LYP) =  -590.598519008     A.U. after   12 cycles
 SCF Done:  E(RB3LYP) =  -590.599236592     A.U. after   11 cycles
 SCF Done:  E(RB3LYP) =  -590.599221583     A.U. after   11 cycles
 SCF Done:  E(RB3LYP) =  -590.599089952     A.U. after   12 cycles
 SCF Done:  E(RB3LYP) =  -590.599532470     A.U. after   12 cycles
 SCF Done:  E(RB3LYP) =  -590.565642762     A.U. after   13 cycles
 SCF Done:  E(RB3LYP) =  -590.603461881     A.U. after   13 cycles
 SCF Done:  E(RB3LYP) =  -590.608111750     A.U. after   14 cycles
 SCF Done:  E(RB3LYP) =  -590.609245788     A.U. after   14 cycles
 SCF Done:  E(RB3LYP) =  -590.618144275     A.U. after   12 cycles
 SCF Done:  E(RB3LYP) =  -590.619306720     A.U. after   12 cycles
 SCF Done:  E(RB3LYP) =  -590.619573948     A.U. after   12 cycles
 SCF Done:  E(RB3LYP) =  -590.619476991     A.U. after   12 cycles
 SCF Done:  E(RB3LYP) =  -590.619703546     A.U. after   11 cycles
 SCF Done:  E(RB3LYP) =  -590.619719694     A.U. after   11 cycles
 SCF Done:  E(RB3LYP) =  -590.619722190     A.U. after   10 cycles
 SCF Done:  E(RB3LYP) =  -590.619722404     A.U. after    8 cycles
 SCF Done:  E(RB3LYP) =  -590.619722435     A.U. after    7 cycles
 Optimization completed.
    -- Stationary point found.
 Normal termination of Gaussian 16 at Sun Jun 12 09:48:03 2022.

 --------------------------------------------------------------------
 #N Geom=AllCheck Guess=TCheck SCRF=Check GenChk RB3LYP/6-31G(d) Freq
 --------------------------------------------------------------------

 Structure from the checkpoint file:  "/home/rong/gdata/050522/a5.chk"
 --
 a5
 --
 Charge =  0 Multiplicity = 1

                         Standard orientation:
 ---------------------------------------------------------------------
 Center     Atomic      Atomic             Coordinates (Angstroms)
 Number     Number       Type             X           Y           Z
 ---------------------------------------------------------------------
      1          6           0       -0.414391    1.215647    0.000061
      2          6           0        0.977460    1.225012    0.000054
      3          6           0        1.652030   -0.014071   -0.000025
      4          6           0        0.965826   -1.246590    0.000004
      5          6           0       -0.424169   -1.220509    0.000008
      6          6           0       -1.100185    0.001517    0.000010
      7          1           0       -0.971795    2.144592    0.000112
      8          1           0       -0.991130   -2.143709   -0.000020
      9          7           0       -2.556789    0.009572   -0.000024
     10          8           0       -3.146295   -1.075900   -0.000027
     11          8           0       -3.134395    1.101800   -0.000031
     12          8           0        3.008988   -0.086755   -0.000130
     13          1           0        3.388321    0.807436   -0.000086
     14          6           0        1.739441   -2.539111    0.000061
     15          1           0        2.390364   -2.614172   -0.879341
     16          1           0        2.389851   -2.614362    0.879852
     17          1           0        1.061894   -3.397709   -0.000177
     18          6           0        1.757541    2.517627    0.000031
     19          1           0        2.400733    2.611022    0.886770
     20          1           0        2.398971    2.612032   -0.887872
     21          1           0        1.082613    3.377568    0.001218
 ---------------------------------------------------------------------

 SCF Done:  E(RB3LYP) =  -590.619722435     A.U. after    1 cycles

 The electronic state is 1-A.
 Alpha  occ. eigenvalues --  -19.19793 -19.16913 -19.16899 -14.56129 -10.26719
 Alpha  occ. eigenvalues --  -10.23671 -10.21403 -10.20947 -10.20841 -10.20622
 Alpha  occ. eigenvalues --  -10.20008 -10.18441  -1.21103  -1.07996  -1.03666
 Alpha  occ. eigenvalues --   -0.88112  -0.80323  -0.80004  -0.71474  -0.69810
 Alpha  occ. eigenvalues --   -0.68817  -0.60865  -0.58147  -0.55322  -0.53717
 Alpha  occ. eigenvalues --   -0.52034  -0.51196  -0.48606  -0.45001  -0.44071
 Alpha  occ. eigenvalues --   -0.42940  -0.42184  -0.42153  -0.40412  -0.38906
 Alpha  occ. eigenvalues --   -0.38882  -0.37753  -0.34923  -0.34899  -0.29988
 Alpha  occ. eigenvalues --   -0.29917  -0.27971  -0.25745  -0.23727
 Alpha virt. eigenvalues --   -0.07662  -0.01151   0.01901   0.05854   0.10139
 Alpha virt. eigenvalues --    0.12485   0.13655   0.13735   0.14842   0.16316
 Alpha virt. eigenvalues --    0.17106   0.19444   0.20204   0.20368   0.22140

 Mulliken charges:
               1
     1  C   -0.238543
     2  C    0.159360
     3  C    0.236611
     4  C    0.139746
     5  C   -0.234072
     6  C    0.296761
     7  H    0.178911
     8  H    0.178197
     9  N    0.364446
    10  O   -0.417863
    11  O   -0.419656
    12  O   -0.634090
    13  H    0.434175
    14  C   -0.523069
    15  H    0.175983
    16  H    0.175976
    17  H    0.166905
    18  C   -0.587444
    19  H    0.178445
    20  H    0.178524
    21  H    0.190698
 Sum of Mulliken charges =  -0.00000

 Dipole moment (field-independent basis, Debye):
    X=              6.5624    Y=              1.6274    Z=              0.0002  Tot=              6.7612
 Quadrupole moment (field-independent basis, Debye-Ang):
   XX=            -80.2890   YY=            -61.6719   ZZ=            -69.1430
   XY=              5.6652   XZ=             -0.0002   YZ=             -0.0002

  Exact polarizability:     168.107       1.609     140.015      -0.001      -0.001      52.157
 Approx polarizability:     244.122       0.376     206.222      -0.002      -0.001      71.158

                      1                      2                      3
                      A                      A                      A
 Frequencies --     52.3731                98.6520               133.2826
 Red. masses --     10.6966                 1.9010                 1.2314
 Frc consts  --      0.0173                 0.0109                 0.0129
 IR Inten    --      0.0144                 0.2940                 0.7482

                      4                      5                      6
                      A                      A                      A
 Frequencies --    146.5963               153.8413               197.5325
 Red. masses --      1.5101                 2.5131                 5.7491
 Frc consts  --      0.0191                 0.0350                 0.1322
 IR Inten    --      0.4627                 0.4878                 2.1504

                      7                      8                      9
                      A                      A                      A
 Frequencies --    241.1033               270.0504               320.3693
 Red. masses --      2.9243                 2.6453                 3.8812
 Frc consts  --      0.1002                 0.1137                 0.2347
 IR Inten    --      3.0030                 1.6919                 4.3815

                     10                     11                     12
                      A                      A                      A
 Frequencies --    343.6150               365.2786               385.4912
 Red. masses --      5.8011                10.6221                 1.1405
 Frc consts  --      0.4036                 0.8350                 0.0999
 IR Inten    --      6.1507                 0.1019               116.6467

                     13                     14                     15
                      A                      A                      A
 Frequencies --    434.7007               505.9125               528.6800
 Red. masses --      6.2114                 3.1433                 4.9721
 Frc consts  --      0.6915                 0.4740                 0.8188
 IR Inten    --      2.7318                 4.7266                 8.2487

                     16                     17                     18
                      A                      A                      A
 Frequencies --    558.4237               562.2519               607.3612
 Red. masses --      4.0055                 6.2899                 3.5177
 Frc consts  --      0.7359                 1.1715                 0.7645
 IR Inten    --      0.1367                 1.3263                 8.2871

                     19                     20                     21
                      A                      A                      A
 Frequencies --    733.2335               745.8518               760.6754
 Red. masses --      5.8470                 6.0417                 7.0622
 Frc consts  --      1.8521                 1.9802                 2.4076
 IR Inten    --      1.0298                35.0473                22.3578

                     22                     23                     24
                      A                      A                      A
 Frequencies --    820.1822               911.6204               937.9323
 Red. masses --      7.0557                 1.3025                 1.4060
 Frc consts  --      2.7965                 0.6377                 0.7288
 IR Inten    --      5.8609                 0.3873                18.9235

                     25                     26                     27
                      A                      A                      A
 Frequencies --    960.2626               968.0698              1030.0064
 Red. masses --      3.0907                 6.5975                 1.6423
 Frc consts  --      1.6791                 3.6429                 1.0266
 IR Inten    --     17.7179                24.4309                 3.2877

                     28                     29                     30
                      A                      A                      A
 Frequencies --   1057.1929              1070.6709              1079.0476
 Red. masses --      1.5483                 1.4693                 1.4789
 Frc consts  --      1.0196                 0.9924                 1.0146
 IR Inten    --     15.7712                 4.5600                 1.3197

                     31                     32                     33
                      A                      A                      A
 Frequencies --   1129.3158              1231.6344              1275.6341
 Red. masses --      1.6253                 1.4611                 5.9504
 Frc consts  --      1.2213                 1.3059                 5.7049
 IR Inten    --    138.0458               119.9148                 4.5601

                     34                     35                     36
                      A                      A                      A
 Frequencies --   1296.6825              1339.5777              1380.5932
 Red. masses --      1.5311                 3.0578                12.6390
 Frc consts  --      1.5167                 3.2329                14.1937
 IR Inten    --    167.4728               100.1752               718.4352

                     37                     38                     39
                      A                      A                      A
 Frequencies --   1408.7124              1442.9557              1447.5280
 Red. masses --      3.6881                 1.2904                 1.2793
 Frc consts  --      4.3122                 1.5830                 1.5793
 IR Inten    --     17.0313                 5.9208                 2.5248

                     40                     41                     42
                      A                      A                      A
 Frequencies --   1480.5224              1488.1941              1504.3102
 Red. masses --      2.6602                 1.9268                 1.0436
 Frc consts  --      3.4356                 2.5143                 1.3914
 IR Inten    --     22.8117                28.2633                10.0179

                     43                     44                     45
                      A                      A                      A
 Frequencies --   1511.4629              1527.5685              1534.2193
 Red. masses --      1.0420                 1.3103                 1.5389
 Frc consts  --      1.4025                 1.8015                 2.1342
 IR Inten    --      9.5979                16.7832                40.8130

                     46                     47                     48
                      A                      A                      A
 Frequencies --   1607.0983              1651.2828              1672.7209
 Red. masses --     11.0845                 5.8165                 7.7228
 Frc consts  --     16.8675                 9.3445                12.7313
 IR Inten    --    239.5188                74.3246                24.1082

                     49                     50                     51
                      A                      A                      A
 Frequencies --   3026.7574              3053.6924              3072.8256
 Red. masses --      1.0421                 1.0372                 1.1017
 Frc consts  --      5.6247                 5.6986                 6.1292
 IR Inten    --     27.6794                25.8828                19.2900

                     52                     53                     54
                      A                      A                      A
 Frequencies --   3106.0566              3139.9639              3141.5865
 Red. masses --      1.1009                 1.1024                 1.0959
 Frc consts  --      6.2576                 6.4038                 6.3724
 IR Inten    --     15.9623                16.8002                 8.3439

                     55                     56                     57
                      A                      A                      A
 Frequencies --   3247.8498              3249.0695              3730.7170
 Red. masses --      1.0910                 1.0909                 1.0655
 Frc consts  --      6.7803                 6.7850                 8.7373
 IR Inten    --      1.2616                 0.9330               128.0389

 - Thermochemistry -
 -------------------
 Temperature   298.150 Kelvin.  Pressure   1.00000 Atm.
 Atom     1 has atomic number  6 and mass  12.00000

 Molecular mass:   167.05824 amu.
 Principal axes and moments of inertia in atomic units:
                           1         2         3
     Eigenvalues --  1169.340392644.258703791.12645
           X            0.99998   0.00702   0.00000
           Y           -0.00702   0.99998  -0.00000
           Z           -0.00000   0.00000   1.00000
 This molecule is an asymmetric top.
 Rotational symmetry number  1.
 Warning -- assumption of classical behavior for rotation
           may cause significant error
 Rotational temperatures (Kelvin)      0.07407     0.03276     0.02285
 Rotational constants (GHZ):           1.54338     0.68251     0.47604
 Zero-point vibrational energy     428734.4 (Joules/Mol)
                                  102.46998 (Kcal/Mol)
 Warning -- explicit consideration of  18 degrees of freedom as
           vibrations may cause significant error
 Vibrational temperatures:     75.35   141.94   191.76   210.92   221.34
          (Kelvin)            284.21   346.89   388.54   460.94   494.39
                              525.55   554.64   625.44   727.90   760.65
                              803.45   808.96   873.86  1054.96  1073.11
                             1094.44  1180.06  1311.62  1349.48  1381.60
                             1392.84  1481.95  1521.06  1540.46  1552.51
                             1624.83  1772.05  1835.35  1865.64  1927.35
                             1986.37  2026.82  2076.09  2082.67  2130.14
                             2141.18  2164.37  2174.66  2197.83  2207.40
                             2312.26  2375.83  2406.67  4354.83  4393.58
                             4421.11  4468.92  4517.71  4520.04  4672.93
                             4674.69  5367.67

 Zero-point correction=                           0.163296 (Hartree/Particle)
 Thermal correction to Energy=                    0.174626
 Thermal correction to Enthalpy=                  0.175570
 Thermal correction to Gibbs Free Energy=         0.126009
 Sum of electronic and zero-point Energies=           -590.456426
 Sum of electronic and thermal Energies=              -590.445096
 Sum of electronic and thermal Enthalpies=            -590.444152
 Sum of electronic and thermal Free Energies=         -590.493713

                     E (Thermal)             CV                S
                      KCal/Mol        Cal/Mol-Kelvin    Cal/Mol-Kelvin
 Total                  109.580             42.037            104.310
 Electronic               0.000              0.000              0.000
 Translational            0.889              2.981             41.248
 Rotational               0.889              2.981             30.839
 Vibrational            107.802             36.076             32.223
 Vibration     1          0.596              1.977              4.726
 Vibration     2          0.604              1.950              3.481
 Vibration     3          0.613              1.920              2.898
 Vibration     4          0.617              1.906              2.716
 Vibration     5          0.619              1.898              2.624
 Vibration     6          0.637              1.843              2.156
 Vibration     7          0.658              1.777              1.795
 Vibration     8          0.674              1.728              1.596
 Vibration     9          0.706              1.635              1.308
 Vibration    10          0.722              1.588              1.195
 Vibration    11          0.738              1.544              1.100
 Vibration    12          0.754              1.501              1.018
 Vibration    13          0.795              1.395              0.843
 Vibration    14          0.861              1.237              0.644
 Vibration    15          0.884              1.187              0.590
 Vibration    16          0.914              1.121              0.527
 Vibration    17          0.918              1.113              0.519
 Vibration    18          0.966              1.016              0.437

                           ! Non-Optimized Parameters !
 Normal termination of Gaussian 16 at Sun Jun 12 09:49:35 2022.
