 Gaussian 16, Revision C.01,
 Gaussian 16:  ES64L-G16RevC.01  3-Jul-2019

 ----------------------------------------------------
 # opt freq b3lyp/6-31g(d) scrf=(smd,solvent=toluene)
 ----------------------------------------------------

 ------
 ClClbz
 ------
 Symbolic Z-matrix:
 Charge =  0 Multiplicity = 1

 SCF Done:  E(RB3LYP) =  -1265.97711245     A.U. after   13 cycles
 SCF Done:  E(RB3LYP) =  -1265.98339203     A.U. after   11 cycles
 SCF Done:  E(RB3LYP) =  -1265.98524075     A.U. after   11 cycles
 SCF Done:  E(RB3LYP) =  -1265.98595271     A.U. after   11 cycles
 SCF Done:  E(RB3LYP) =  -1265.98624305     A.U. after   10 cycles
 SCF Done:  E(RB3LYP) =  -1265.98629444     A.U. after    9 cycles
 SCF Done:  E(RB3LYP) =  -1265.98630305     A.U. after    8 cycles
 SCF Done:  E(RB3LYP) =  -1265.98630397     A.U. after    8 cycles
 SCF Done:  E(RB3LYP) =  -1265.98630405     A.U. after    7 cycles
 Optimization completed.
    -- Stationary point found.
 Normal termination of Gaussian 16 at Thu Sep 23 14:54:50 2021.

 --------------------------------------------------------------------
 #N Geom=AllCheck Guess=TCheck SCRF=Check GenChk RB3LYP/6-31G(d) Freq
 --------------------------------------------------------------------

 Structure from the checkpoint file:  "ClClbz.chk"
 ------
 ClClbz
 ------
 Charge =  0 Multiplicity = 1

                         Standard orientation:
 ---------------------------------------------------------------------
 Center     Atomic      Atomic             Coordinates (Angstroms)
 Number     Number       Type             X           Y           Z
 ---------------------------------------------------------------------
      1          6           0       -0.524323   -1.157159   -0.000016
      2          6           0        0.807769   -0.749820   -0.000015
      3          6           0        1.172577    0.602441   -0.000019
      4          6           0        0.164359    1.586841   -0.000009
      5          6           0       -1.170759    1.182390    0.000000
      6          6           0       -1.504630   -0.172289   -0.000017
      7          1           0       -0.779019   -2.210175   -0.000016
      8          1           0       -1.955134    1.932145    0.000004
      9          6           0        0.550970    3.043136   -0.000014
     10          1           0        1.155255    3.293949    0.880009
     11          1           0        1.155804    3.293797   -0.879695
     12          1           0       -0.337393    3.681196   -0.000350
     13          8           0        2.460876    1.027916    0.000054
     14          1           0        3.054342    0.255865   -0.000080
     15         17           0       -3.201847   -0.649274    0.000014
     16         17           0        2.086750   -1.967393   -0.000000
 ---------------------------------------------------------------------

 SCF Done:  E(RB3LYP) =  -1265.98630405     A.U. after    1 cycles

 The electronic state is 1-A.
 Alpha  occ. eigenvalues -- -101.56776-101.55142 -19.19259 -10.26866 -10.26139
 Alpha  occ. eigenvalues --  -10.25451 -10.21426 -10.21323 -10.20582 -10.18578
 Alpha  occ. eigenvalues --   -9.48386  -9.46757  -7.24763  -7.23825  -7.23792
 Alpha  occ. eigenvalues --   -7.23154  -7.22180  -7.22160  -1.07685  -0.90463
 Alpha  occ. eigenvalues --   -0.87543  -0.83466  -0.77370  -0.73162  -0.69918
 Alpha  occ. eigenvalues --   -0.62577  -0.59604  -0.56037  -0.51229  -0.47926
 Alpha  occ. eigenvalues --   -0.45467  -0.44503  -0.43294  -0.40867  -0.40623
 Alpha  occ. eigenvalues --   -0.40297  -0.38079  -0.37543  -0.36103  -0.35866
 Alpha  occ. eigenvalues --   -0.33586  -0.31582  -0.30993  -0.25593  -0.22668
 Alpha virt. eigenvalues --   -0.01829  -0.00613   0.00195   0.04576   0.08152
 Alpha virt. eigenvalues --    0.12348   0.13504   0.14388   0.15951   0.17984
 Alpha virt. eigenvalues --    0.19344   0.21550   0.23579   0.28309   0.28923

 Mulliken charges:
               1
     1  C   -0.148453
     2  C   -0.122595
     3  C    0.301695
     4  C    0.141470
     5  C   -0.195377
     6  C   -0.068213
     7  H    0.189436
     8  H    0.167283
     9  C   -0.521013
    10  H    0.179149
    11  H    0.179148
    12  H    0.165364
    13  O   -0.637419
    14  H    0.430113
    15  Cl  -0.034864
    16  Cl  -0.025726
 Sum of Mulliken charges =   0.00000

 Dipole moment (field-independent basis, Debye):
    X=              1.3948    Y=              1.0584    Z=             -0.0002  Tot=              1.7509
 Quadrupole moment (field-independent basis, Debye-Ang):
   XX=            -72.0647   YY=            -66.8381   ZZ=            -73.1168
   XY=             -2.4739   XZ=             -0.0008   YZ=             -0.0001

  Exact polarizability:     149.607      -0.742     131.683      -0.000       0.001      45.568
 Approx polarizability:     204.288       1.057     176.251       0.000       0.001      62.712

                      1                      2                      3
                      A                      A                      A
 Frequencies --    114.0896               138.7603               148.5149
 Red. masses --      4.1121                 1.3392                 3.4923
 Frc consts  --      0.0315                 0.0152                 0.0454
 IR Inten    --      0.0445                 0.0722                 0.0052

                      4                      5                      6
                      A                      A                      A
 Frequencies --    196.4469               226.4614               244.2148
 Red. masses --     17.4213                 3.3744                 4.2516
 Frc consts  --      0.3961                 0.1020                 0.1494
 IR Inten    --      0.9099                 3.5053                 0.5087

                      7                      8                      9
                      A                      A                      A
 Frequencies --    311.8328               351.7401               378.0206
 Red. masses --      4.7929                 5.8937                15.2994
 Frc consts  --      0.2746                 0.4296                 1.2881
 IR Inten    --      7.3422                 4.1271                 2.8321

                     10                     11                     12
                      A                      A                      A
 Frequencies --    407.0182               407.2849               504.4882
 Red. masses --      1.1375                 9.7254                 4.1720
 Frc consts  --      0.1110                 0.9505                 0.6256
 IR Inten    --    121.9667                 5.7617                 0.4625

                     13                     14                     15
                      A                      A                      A
 Frequencies --    509.8887               571.8360               584.2970
 Red. masses --      4.6121                 3.9563                 4.4638
 Frc consts  --      0.7065                 0.7622                 0.8979
 IR Inten    --      1.1078                 2.3754                13.0436

                     16                     17                     18
                      A                      A                      A
 Frequencies --    715.8361               728.9558               850.2546
 Red. masses --      6.4940                 8.4901                 6.2325
 Frc consts  --      1.9606                 2.6581                 2.6547
 IR Inten    --      3.6758               102.4611                33.6916

                     19                     20                     21
                      A                      A                      A
 Frequencies --    865.0971               891.0921               908.9707
 Red. masses --      1.3339                 1.3164                 6.4152
 Frc consts  --      0.5881                 0.6158                 3.1229
 IR Inten    --     24.5547                 9.2636                15.1194

                     22                     23                     24
                      A                      A                      A
 Frequencies --   1031.2978              1076.1053              1132.1881
 Red. masses --      1.5272                 1.4759                 1.6827
 Frc consts  --      0.9570                 1.0069                 1.2709
 IR Inten    --     18.2582                 2.8806                 6.8046

                     25                     26                     27
                      A                      A                      A
 Frequencies --   1180.3375              1245.1463              1278.5244
 Red. masses --      3.0962                 2.0181                 2.0527
 Frc consts  --      2.5415                 1.8434                 1.9770
 IR Inten    --    126.5340                13.2560               102.7241

                     28                     29                     30
                      A                      A                      A
 Frequencies --   1332.6888              1377.5083              1444.7292
 Red. masses --      2.5926                 2.5747                 1.2975
 Frc consts  --      2.7130                 2.8785                 1.5956
 IR Inten    --     19.5085                59.7750                11.2495

                     31                     32                     33
                      A                      A                      A
 Frequencies --   1451.6710              1504.0067              1505.3035
 Red. masses --      3.1081                 1.0437                 2.1811
 Frc consts  --      3.8591                 1.3909                 2.9119
 IR Inten    --     59.8444                 9.1184                82.2531

                     34                     35                     36
                      A                      A                      A
 Frequencies --   1523.5527              1630.6787              1649.2088
 Red. masses --      1.5027                 6.3020                 6.7268
 Frc consts  --      2.0552                 9.8734                10.7797
 IR Inten    --    166.6359                18.6629                 9.1910

                     37                     38                     39
                      A                      A                      A
 Frequencies --   3054.3522              3107.8116              3140.7224
 Red. masses --      1.0370                 1.1010                 1.1025
 Frc consts  --      5.6998                 6.2655                 6.4076
 IR Inten    --     23.2292                14.1801                16.5603

                     40                     41                     42
                      A                      A                      A
 Frequencies --   3222.3964              3245.8443              3685.7024
 Red. masses --      1.0917                 1.0929                 1.0651
 Frc consts  --      6.6789                 6.7842                 8.5246
 IR Inten    --      1.9274                 1.0620               116.6422

 - Thermochemistry -
 -------------------
 Temperature   298.150 Kelvin.  Pressure   1.00000 Atm.
 Atom     1 has atomic number  6 and mass  12.00000

 Molecular mass:   175.97957 amu.
 Principal axes and moments of inertia in atomic units:
                           1         2         3
     Eigenvalues --  1419.096592503.972023911.92406
           X            0.99971   0.02396  -0.00000
           Y           -0.02396   0.99971  -0.00000
           Z            0.00000   0.00000   1.00000
 This molecule is an asymmetric top.
 Rotational symmetry number  1.
 Warning -- assumption of classical behavior for rotation
           may cause significant error
 Rotational temperatures (Kelvin)      0.06103     0.03459     0.02214
 Rotational constants (GHZ):           1.27175     0.72075     0.46134
 Zero-point vibrational energy     298318.0 (Joules/Mol)
                                   71.29972 (Kcal/Mol)
 Warning -- explicit consideration of  15 degrees of freedom as
           vibrations may cause significant error
 Vibrational temperatures:    164.15   199.65   213.68   282.64   325.83
          (Kelvin)            351.37   448.66   506.08   543.89   585.61
                              585.99   725.85   733.62   822.74   840.67
                             1029.93  1048.80  1223.33  1244.68  1282.08
                             1307.81  1483.81  1548.28  1628.97  1698.24
                             1791.49  1839.51  1917.44  1981.93  2078.64
                             2088.63  2163.93  2165.80  2192.05  2346.18
                             2372.84  4394.53  4471.45  4518.80  4636.31
                             4670.05  5302.90

 Zero-point correction=                           0.113623 (Hartree/Particle)
 Thermal correction to Energy=                    0.123157
 Thermal correction to Enthalpy=                  0.124101
 Thermal correction to Gibbs Free Energy=         0.078363
 Sum of electronic and zero-point Energies=          -1265.872681
 Sum of electronic and thermal Energies=             -1265.863147
 Sum of electronic and thermal Enthalpies=           -1265.862203
 Sum of electronic and thermal Free Energies=        -1265.907941

                     E (Thermal)             CV                S
                      KCal/Mol        Cal/Mol-Kelvin    Cal/Mol-Kelvin
 Total                   77.282             35.294             96.263
 Electronic               0.000              0.000              0.000
 Translational            0.889              2.981             41.403
 Rotational               0.889              2.981             31.009
 Vibrational             75.505             29.332             23.851
 Vibration     1          0.607              1.938              3.198
 Vibration     2          0.614              1.915              2.821
 Vibration     3          0.618              1.904              2.691
 Vibration     4          0.636              1.845              2.166
 Vibration     5          0.650              1.801              1.907
 Vibration     6          0.660              1.772              1.772
 Vibration     7          0.700              1.651              1.353
 Vibration     8          0.728              1.572              1.158
 Vibration     9          0.748              1.517              1.047
 Vibration    10          0.772              1.455              0.937
 Vibration    11          0.772              1.454              0.936
 Vibration    12          0.860              1.240              0.647
 Vibration    13          0.865              1.228              0.634
 Vibration    14          0.928              1.092              0.501
 Vibration    15          0.941              1.065              0.477

 Optimization completed.
    -- Stationary point found.
 Normal termination of Gaussian 16 at Thu Sep 23 14:57:21 2021.
