 Gaussian 16, Revision C.01,
 Gaussian 16:  ES64L-G16RevC.01  3-Jul-2019

 ----------------------------------------------------
 # opt freq b3lyp/6-31g(d) scrf=(smd,solvent=toluene)
 ----------------------------------------------------

 -----
 HClbz
 -----
 Symbolic Z-matrix:
 Charge =  0 Multiplicity = 1

 SCF Done:  E(RB3LYP) =  -806.379441709     A.U. after   13 cycles
 SCF Done:  E(RB3LYP) =  -806.383485238     A.U. after   11 cycles
 SCF Done:  E(RB3LYP) =  -806.383776816     A.U. after   10 cycles
 SCF Done:  E(RB3LYP) =  -806.383816141     A.U. after    9 cycles
 SCF Done:  E(RB3LYP) =  -806.384040659     A.U. after   11 cycles
 SCF Done:  E(RB3LYP) =  -806.349913648     A.U. after   12 cycles
 SCF Done:  E(RB3LYP) =  -806.386524664     A.U. after   12 cycles
 SCF Done:  E(RB3LYP) =  -806.386142220     A.U. after   11 cycles
 SCF Done:  E(RB3LYP) =  -806.388009253     A.U. after   12 cycles
 SCF Done:  E(RB3LYP) =  -806.385378143     A.U. after   12 cycles
 SCF Done:  E(RB3LYP) =  -806.389463514     A.U. after   10 cycles
 SCF Done:  E(RB3LYP) =  -806.389696244     A.U. after   10 cycles
 SCF Done:  E(RB3LYP) =  -806.389712577     A.U. after    9 cycles
 SCF Done:  E(RB3LYP) =  -806.389715016     A.U. after    9 cycles
 SCF Done:  E(RB3LYP) =  -806.389716418     A.U. after    8 cycles
 Optimization completed.
    -- Stationary point found.
 Normal termination of Gaussian 16 at Thu Sep 23 12:48:45 2021.

 --------------------------------------------------------------------
 #N Geom=AllCheck Guess=TCheck SCRF=Check GenChk RB3LYP/6-31G(d) Freq
 --------------------------------------------------------------------

 Structure from the checkpoint file:  "HClbz.chk"
 -----
 HClbz
 -----
 Charge =  0 Multiplicity = 1

                         Standard orientation:
 ---------------------------------------------------------------------
 Center     Atomic      Atomic             Coordinates (Angstroms)
 Number     Number       Type             X           Y           Z
 ---------------------------------------------------------------------
      1          6           0        0.772057   -1.393698   -0.000069
      2          6           0       -0.595743   -1.654092   -0.000066
      3          6           0       -1.516004   -0.602412    0.000003
      4          6           0       -1.081055    0.736921   -0.000099
      5          6           0        0.295762    0.984350   -0.000060
      6          6           0        1.205697   -0.070023    0.000010
      7          1           0        1.487253   -2.209432   -0.000054
      8          1           0       -0.966054   -2.674535   -0.000134
      9          1           0        0.654068    2.009127   -0.000093
     10          8           0       -2.839313   -0.940695    0.000140
     11          1           0       -3.381225   -0.135701   -0.000124
     12          6           0       -2.079907    1.869625    0.000010
     13          1           0       -2.730063    1.847058   -0.886422
     14          1           0       -2.729202    1.847461    0.887030
     15          1           0       -1.571796    2.837916   -0.000529
     16         17           0        2.938041    0.281155    0.000049
 ---------------------------------------------------------------------

 SCF Done:  E(RB3LYP) =  -806.389716418     A.U. after    1 cycles

 The electronic state is 1-A.
 Alpha  occ. eigenvalues -- -101.54360 -19.18135 -10.25185 -10.24214 -10.20494
 Alpha  occ. eigenvalues --  -10.19889 -10.19865 -10.19446 -10.19125  -9.45975
 Alpha  occ. eigenvalues --   -7.22360  -7.21404  -7.21386  -1.06237  -0.88264
 Alpha  occ. eigenvalues --   -0.83096  -0.77820  -0.72743  -0.69727  -0.61372
 Alpha  occ. eigenvalues --   -0.59705  -0.54522  -0.49606  -0.46785  -0.44229
 Alpha  occ. eigenvalues --   -0.43750  -0.42050  -0.40315  -0.39541  -0.39492
 Alpha  occ. eigenvalues --   -0.37017  -0.36935  -0.34541  -0.30861  -0.30688
 Alpha  occ. eigenvalues --   -0.25371  -0.21726
 Alpha virt. eigenvalues --   -0.00681   0.00526   0.03278   0.06703   0.12894
 Alpha virt. eigenvalues --    0.13669   0.14017   0.14952   0.17663   0.19094
 Alpha virt. eigenvalues --    0.19137   0.23075   0.23891   0.29335   0.29934

 Mulliken charges:
               1
     1  C   -0.149156
     2  C   -0.165492
     3  C    0.276201
     4  C    0.153772
     5  C   -0.204837
     6  C   -0.070265
     7  H    0.166205
     8  H    0.157905
     9  H    0.160258
    10  O   -0.649557
    11  H    0.426796
    12  C   -0.581918
    13  H    0.175303
    14  H    0.175359
    15  H    0.183237
    16  Cl  -0.053812
 Sum of Mulliken charges =   0.00000

 Dipole moment (field-independent basis, Debye):
    X=             -3.0183    Y=              1.4266    Z=             -0.0005  Tot=              3.3384
 Quadrupole moment (field-independent basis, Debye-Ang):
   XX=            -57.9672   YY=            -53.8777   ZZ=            -61.5515
   XY=             -6.7209   XZ=              0.0014   YZ=              0.0003

  Exact polarizability:     138.871      -2.103     107.197       0.001      -0.000      40.996
 Approx polarizability:     186.102       3.604     148.106       0.001      -0.001      55.561

                      1                      2                      3
                      A                      A                      A
 Frequencies --    121.4143               155.3292               193.1607
 Red. masses --      2.9699                 1.3152                 2.8247
 Frc consts  --      0.0258                 0.0187                 0.0621
 IR Inten    --      0.1188                 1.3784                 0.8368

                      4                      5                      6
                      A                      A                      A
 Frequencies --    231.6131               310.6629               311.2454
 Red. masses --      5.2327                 3.8020                 1.3133
 Frc consts  --      0.1654                 0.2162                 0.0750
 IR Inten    --      1.0518                 1.6358               114.5340

                      7                      8                      9
                      A                      A                      A
 Frequencies --    347.5761               378.4054               452.2329
 Red. masses --      3.4740                14.3804                 3.0789
 Frc consts  --      0.2473                 1.2132                 0.3710
 IR Inten    --     14.2227                 2.5509                 3.5022

                     10                     11                     12
                      A                      A                      A
 Frequencies --    465.7280               557.7693               562.5428
 Red. masses --      3.9918                 3.5069                 4.3725
 Frc consts  --      0.5101                 0.6428                 0.8153
 IR Inten    --     16.0554                 2.4614                 0.5770

                     13                     14                     15
                      A                      A                      A
 Frequencies --    657.9830               707.0343               781.0139
 Red. masses --      7.5632                 4.2873                 4.9286
 Frc consts  --      1.9292                 1.2628                 1.7713
 IR Inten    --     33.2420                 0.4861                19.6572

                     16                     17                     18
                      A                      A                      A
 Frequencies --    831.7179               887.6417               893.0920
 Red. masses --      1.4366                 1.3167                 5.9007
 Frc consts  --      0.5855                 0.6112                 2.7730
 IR Inten    --     31.6903                15.8244                28.5408

                     19                     20                     21
                      A                      A                      A
 Frequencies --    946.2338              1019.3556              1072.7766
 Red. masses --      1.2820                 1.5513                 1.4630
 Frc consts  --      0.6763                 0.9497                 0.9920
 IR Inten    --      0.0252                12.6161                 2.8674

                     22                     23                     24
                      A                      A                      A
 Frequencies --   1116.0960              1138.4196              1194.3707
 Red. masses --      2.0707                 1.6651                 1.4171
 Frc consts  --      1.5197                 1.2715                 1.1910
 IR Inten    --     14.8695                 0.8082                34.2427

                     25                     26                     27
                      A                      A                      A
 Frequencies --   1247.5959              1307.0461              1326.2428
 Red. masses --      2.3739                 1.8552                 2.9243
 Frc consts  --      2.1770                 1.8673                 3.0305
 IR Inten    --    236.0694                41.3332                28.7996

                     28                     29                     30
                      A                      A                      A
 Frequencies --   1381.5748              1444.6739              1460.6299
 Red. masses --      2.4084                 1.3745                 2.5615
 Frc consts  --      2.7085                 1.6902                 3.2198
 IR Inten    --     42.2439                 3.5030                 3.1217

                     31                     32                     33
                      A                      A                      A
 Frequencies --   1515.9783              1521.7675              1538.1463
 Red. masses --      1.0415                 1.3441                 2.0714
 Frc consts  --      1.4102                 1.8339                 2.8875
 IR Inten    --     10.2753                46.4163               173.4168

                     34                     35                     36
                      A                      A                      A
 Frequencies --   1635.8247              1670.6158              3026.1243
 Red. masses --      6.1130                 6.2413                 1.0417
 Frc consts  --      9.6378                10.2632                 5.6201
 IR Inten    --     17.3526                 0.1577                31.4144

                     37                     38                     39
                      A                      A                      A
 Frequencies --   3071.4245              3135.0283              3212.6990
 Red. masses --      1.1017                 1.0963                 1.0909
 Frc consts  --      6.1233                 6.3486                 6.6341
 IR Inten    --     22.1830                11.4300                 5.8822

                     40                     41                     42
                      A                      A                      A
 Frequencies --   3214.3033              3228.6499              3741.4169
 Red. masses --      1.0892                 1.0954                 1.0655
 Frc consts  --      6.6301                 6.7276                 8.7878
 IR Inten    --      2.0021                 3.4411                89.9916

 - Thermochemistry -
 -------------------
 Temperature   298.150 Kelvin.  Pressure   1.00000 Atm.
 Atom     1 has atomic number  6 and mass  12.00000

 Molecular mass:   142.01854 amu.
 Principal axes and moments of inertia in atomic units:
                           1         2         3
     Eigenvalues --   606.320022099.493922694.49458
           X            0.99940  -0.03453   0.00000
           Y            0.03453   0.99940   0.00000
           Z           -0.00000  -0.00000   1.00000
 This molecule is an asymmetric top.
 Rotational symmetry number  1.
 Warning -- assumption of classical behavior for rotation
           may cause significant error
 Rotational temperatures (Kelvin)      0.14285     0.04125     0.03214
 Rotational constants (GHZ):           2.97655     0.85961     0.66979
 Zero-point vibrational energy     323070.4 (Joules/Mol)
                                   77.21569 (Kcal/Mol)
 Warning -- explicit consideration of  12 degrees of freedom as
           vibrations may cause significant error
 Vibrational temperatures:    174.69   223.48   277.92   333.24   446.97
          (Kelvin)            447.81   500.08   544.44   650.66   670.08
                              802.51   809.37   946.69  1017.26  1123.70
                             1196.66  1277.12  1284.96  1361.42  1466.63
                             1543.49  1605.81  1637.93  1718.43  1795.01
                             1880.55  1908.17  1987.78  2078.56  2101.52
                             2181.15  2189.48  2213.05  2353.59  2403.64
                             4353.92  4419.09  4510.61  4622.36  4624.67
                             4645.31  5383.06

 Zero-point correction=                           0.123051 (Hartree/Particle)
 Thermal correction to Energy=                    0.131433
 Thermal correction to Enthalpy=                  0.132377
 Thermal correction to Gibbs Free Energy=         0.089800
 Sum of electronic and zero-point Energies=           -806.266665
 Sum of electronic and thermal Energies=              -806.258284
 Sum of electronic and thermal Enthalpies=            -806.257340
 Sum of electronic and thermal Free Energies=         -806.299916

                     E (Thermal)             CV                S
                      KCal/Mol        Cal/Mol-Kelvin    Cal/Mol-Kelvin
 Total                   82.475             31.651             89.610
 Electronic               0.000              0.000              0.000
 Translational            0.889              2.981             40.764
 Rotational               0.889              2.981             29.618
 Vibrational             80.698             25.689             19.228
 Vibration     1          0.609              1.931              3.078
 Vibration     2          0.620              1.897              2.606
 Vibration     3          0.635              1.849              2.197
 Vibration     4          0.653              1.793              1.866
 Vibration     5          0.700              1.653              1.359
 Vibration     6          0.700              1.652              1.356
 Vibration     7          0.725              1.580              1.177
 Vibration     8          0.749              1.516              1.046
 Vibration     9          0.811              1.356              0.789
 Vibration    10          0.823              1.326              0.750
 Vibration    11          0.913              1.123              0.528
 Vibration    12          0.918              1.112              0.519

 Optimization completed.
    -- Stationary point found.
 Normal termination of Gaussian 16 at Thu Sep 23 12:50:50 2021.
