 Gaussian 16, Revision C.01,
 Gaussian 16:  ES64L-G16RevC.01  3-Jul-2019

 ----------------------------------------------------
 # opt freq b3lyp/6-31g(d) scrf=(smd,solvent=toluene)
 ----------------------------------------------------

 --------
 A9 recal
 --------
 Symbolic Z-matrix:
 Charge =  0 Multiplicity = 1

 SCF Done:  E(RB3LYP) =  -582.653975729     A.U. after   13 cycles
 SCF Done:  E(RB3LYP) =  -582.671647473     A.U. after   11 cycles
 SCF Done:  E(RB3LYP) =  -582.675120567     A.U. after   11 cycles
 SCF Done:  E(RB3LYP) =  -582.676492591     A.U. after   10 cycles
 SCF Done:  E(RB3LYP) =  -582.677345344     A.U. after   11 cycles
 SCF Done:  E(RB3LYP) =  -582.678749154     A.U. after   12 cycles
 SCF Done:  E(RB3LYP) =  -582.680132460     A.U. after   12 cycles
 SCF Done:  E(RB3LYP) =  -582.681769720     A.U. after   11 cycles
 SCF Done:  E(RB3LYP) =  -582.682135870     A.U. after   10 cycles
 SCF Done:  E(RB3LYP) =  -582.682210581     A.U. after    9 cycles
 SCF Done:  E(RB3LYP) =  -582.682238924     A.U. after    8 cycles
 SCF Done:  E(RB3LYP) =  -582.682117401     A.U. after   11 cycles
 SCF Done:  E(RB3LYP) =  -582.682241386     A.U. after    9 cycles
 SCF Done:  E(RB3LYP) =  -582.682237889     A.U. after    9 cycles
 SCF Done:  E(RB3LYP) =  -582.682243141     A.U. after    9 cycles
 SCF Done:  E(RB3LYP) =  -582.682243530     A.U. after    7 cycles
 SCF Done:  E(RB3LYP) =  -582.682243783     A.U. after    7 cycles
 SCF Done:  E(RB3LYP) =  -582.682243889     A.U. after    7 cycles
 SCF Done:  E(RB3LYP) =  -582.682243915     A.U. after    7 cycles
 Optimization completed.
    -- Stationary point found.
 Normal termination of Gaussian 16 at Fri Aug  5 08:12:38 2022.

 --------------------------------------------------------------------
 #N Geom=AllCheck Guess=TCheck SCRF=Check GenChk RB3LYP/6-31G(d) Freq
 --------------------------------------------------------------------

 Structure from the checkpoint file:  "/home/rong/gdata/062722/A9-recal.chk"
 --------
 A9 recal
 --------
 Charge =  0 Multiplicity = 1

                         Standard orientation:
 ---------------------------------------------------------------------
 Center     Atomic      Atomic             Coordinates (Angstroms)
 Number     Number       Type             X           Y           Z
 ---------------------------------------------------------------------
      1          6           0        0.038445   -0.941611   -0.001623
      2          6           0       -1.167837   -0.229430   -0.003654
      3          6           0       -1.097075    1.172690   -0.003281
      4          6           0        0.140972    1.844592   -0.001985
      5          6           0        1.311892    1.084128   -0.000387
      6          6           0        1.288723   -0.316665    0.000029
      7          1           0       -0.000701   -2.029260   -0.001378
      8          1           0        2.264476    1.609733    0.000609
      9          8           0       -2.281284    1.870258   -0.004072
     10          1           0       -2.089380    2.820620   -0.005491
     11          6           0       -2.511157   -0.952365   -0.004225
     12          6           0       -2.706051   -1.790343    1.273148
     13          6           0       -2.691895   -1.819388   -1.264014
     14          1           0       -3.294004   -0.188562   -0.017421
     15          1           0       -2.619740   -1.169809    2.172581
     16          1           0       -3.698405   -2.258596    1.279772
     17          1           0       -1.960768   -2.591836    1.348138
     18          1           0       -2.594113   -1.219977   -2.176511
     19          1           0       -1.947684   -2.623854   -1.312092
     20          1           0       -3.684930   -2.286132   -1.271338
     21          6           0        0.188627    3.355312   -0.002134
     22          1           0       -0.297498    3.788482   -0.888912
     23          1           0       -0.298437    3.788635    0.884047
     24          1           0        1.223130    3.710915   -0.001673
     25          6           0        2.573698   -1.136784    0.002057
     26          1           0        2.278156   -2.194891    0.002121
     27          6           0        3.415583   -0.895436   -1.264475
     28          1           0        4.302640   -1.541300   -1.271149
     29          1           0        2.837459   -1.104263   -2.171997
     30          1           0        3.762608    0.143665   -1.322494
     31          6           0        3.412275   -0.894343    1.270584
     32          1           0        3.759361    0.144744    1.328500
     33          1           0        2.831711   -1.102159    2.176781
     34          1           0        4.299188   -1.540362    1.280238
 ---------------------------------------------------------------------

 SCF Done:  E(RB3LYP) =  -582.682243915     A.U. after    1 cycles

 The electronic state is 1-A.
 Alpha  occ. eigenvalues --  -19.16889 -10.23416 -10.18737 -10.18593 -10.18437
 Alpha  occ. eigenvalues --  -10.18050 -10.17839 -10.17587 -10.17496 -10.17249
 Alpha  occ. eigenvalues --  -10.16609 -10.16608 -10.16416 -10.16415  -1.04848
 Alpha  occ. eigenvalues --   -0.84780  -0.79753  -0.78678  -0.74471  -0.71028
 Alpha  occ. eigenvalues --   -0.68124  -0.67293  -0.67085  -0.61183  -0.60710
 Alpha  occ. eigenvalues --   -0.56244  -0.53202  -0.52934  -0.48993  -0.44521
 Alpha  occ. eigenvalues --   -0.43611  -0.42805  -0.42704  -0.42310  -0.40574
 Alpha  occ. eigenvalues --   -0.40270  -0.39823  -0.39627  -0.38997  -0.37643
 Alpha  occ. eigenvalues --   -0.37459  -0.37080  -0.36729  -0.35500  -0.33661
 Alpha  occ. eigenvalues --   -0.33008  -0.32990  -0.32018  -0.30919  -0.30579
 Alpha  occ. eigenvalues --   -0.30071  -0.22909  -0.20277
 Alpha virt. eigenvalues --    0.00911   0.02293   0.07403   0.09621   0.10719
 Alpha virt. eigenvalues --    0.12542   0.13159   0.14411   0.14845   0.15724
 Alpha virt. eigenvalues --    0.15977   0.16093   0.16559   0.16832   0.17503

 Mulliken charges:
               1
     1  C   -0.303950
     2  C    0.159795
     3  C    0.181601
     4  C    0.172604
     5  C   -0.285031
     6  C    0.201803
     7  H    0.127832
     8  H    0.126425
     9  O   -0.659563
    10  H    0.422860
    11  C   -0.149644
    12  C   -0.447945
    13  C   -0.448425
    14  H    0.154439
    15  H    0.149908
    16  H    0.141688
    17  H    0.143453
    18  H    0.149854
    19  H    0.143590
    20  H    0.141741
    21  C   -0.588699
    22  H    0.168540
    23  H    0.168620
    24  H    0.176344
    25  C   -0.154912
    26  H    0.131266
    27  C   -0.448095
    28  H    0.141887
    29  H    0.149528
    30  H    0.144587
    31  C   -0.448099
    32  H    0.144584
    33  H    0.149526
    34  H    0.141889
 Sum of Mulliken charges =  -0.00000

 Dipole moment (field-independent basis, Debye):
    X=              0.7004    Y=              1.5452    Z=             -0.0023  Tot=              1.6965
 Quadrupole moment (field-independent basis, Debye-Ang):
   XX=            -86.5040   YY=            -75.1649   ZZ=            -89.5075
   XY=             -1.0254   XZ=              0.0146   YZ=             -0.0148

  Exact polarizability:     196.254      -0.023     183.507       0.024       0.011     109.594
 Approx polarizability:     242.800      -4.960     235.654       0.108      -0.041     133.972

 ******    1 imaginary frequencies (negative Signs) ******

                      1                      2                      3
                      A                      A                      A
 Frequencies --     -4.1426                31.1211                94.4804
 Red. masses --      2.6341                 2.6935                 3.8365
 Frc consts  --      0.0000                 0.0015                 0.0202
 IR Inten    --      0.0036                 0.0023                 0.4328

                      4                      5                      6
                      A                      A                      A
 Frequencies --     97.0744               137.9891               169.1839
 Red. masses --      3.0637                 3.0635                 1.9763
 Frc consts  --      0.0170                 0.0344                 0.0333
 IR Inten    --      1.0252                 0.3059                 4.3838

                      7                      8                      9
                      A                      A                      A
 Frequencies --    184.2547               196.5854               230.9895
 Red. masses --      1.2499                 2.7047                 1.1421
 Frc consts  --      0.0250                 0.0616                 0.0359
 IR Inten    --      2.0588                 1.0051                 3.0355

                     10                     11                     12
                      A                      A                      A
 Frequencies --    236.0019               249.4947               257.0323
 Red. masses --      1.0917                 2.0283                 1.1720
 Frc consts  --      0.0358                 0.0744                 0.0456
 IR Inten    --      0.7782                15.5661                 0.2418

                     13                     14                     15
                      A                      A                      A
 Frequencies --    261.5757               278.2324               289.6107
 Red. masses --      1.2555                 1.8553                 1.2246
 Frc consts  --      0.0506                 0.0846                 0.0605
 IR Inten    --      0.6483                 0.2742                92.6565

                     16                     17                     18
                      A                      A                      A
 Frequencies --    303.5067               319.1839               344.2773
 Red. masses --      2.7927                 3.1280                 3.4647
 Frc consts  --      0.1516                 0.1878                 0.2420
 IR Inten    --      0.0364                 2.6743                 0.6752

                     19                     20                     21
                      A                      A                      A
 Frequencies --    420.0582               430.2186               441.9594
 Red. masses --      2.7643                 4.3347                 2.8567
 Frc consts  --      0.2874                 0.4727                 0.3288
 IR Inten    --      3.8562                 0.1178                 1.7808

                     22                     23                     24
                      A                      A                      A
 Frequencies --    521.9793               526.2166               562.5893
 Red. masses --      3.0940                 3.7307                 4.0069
 Frc consts  --      0.4967                 0.6087                 0.7472
 IR Inten    --      1.1399                 1.6745                 4.1332

                     25                     26                     27
                      A                      A                      A
 Frequencies --    568.0554               637.3817               655.1104
 Red. masses --      3.9257                 2.5841                 3.6920
 Frc consts  --      0.7464                 0.6185                 0.9336
 IR Inten    --      0.0417                 4.1773                 2.3153

                     28                     29                     30
                      A                      A                      A
 Frequencies --    758.6768               764.6754               850.2984
 Red. masses --      5.1286                 3.9054                 3.7203
 Frc consts  --      1.7393                 1.3455                 1.5848
 IR Inten    --      5.0052                19.9199                 4.9456

                     31                     32                     33
                      A                      A                      A
 Frequencies --    884.8558               893.1242               913.6630
 Red. masses --      2.8476                 1.3998                 1.3876
 Frc consts  --      1.3136                 0.6578                 0.6825
 IR Inten    --      1.2177                15.1640                 4.3368

                     34                     35                     36
                      A                      A                      A
 Frequencies --    940.8891               942.2569               953.6143
 Red. masses --      1.1712                 1.1682                 2.4774
 Frc consts  --      0.6109                 0.6111                 1.3274
 IR Inten    --      1.6608                 0.8913                19.9123

                     37                     38                     39
                      A                      A                      A
 Frequencies --    964.8868               971.6060               971.8152
 Red. masses --      3.0724                 1.5190                 1.5077
 Frc consts  --      1.6853                 0.8448                 0.8389
 IR Inten    --     11.8856                 0.0329                 0.1745

                     40                     41                     42
                      A                      A                      A
 Frequencies --   1027.8069              1067.5011              1098.3412
 Red. masses --      1.5473                 1.4706                 1.5320
 Frc consts  --      0.9630                 0.9874                 1.0889
 IR Inten    --      1.8627                 1.9418                 1.6758

                     43                     44                     45
                      A                      A                      A
 Frequencies --   1114.8041              1132.8436              1133.5644
 Red. masses --      1.5314                 2.2707                 2.3003
 Frc consts  --      1.1213                 1.7170                 1.7415
 IR Inten    --     14.2173                 4.0001                 0.2454

                     46                     47                     48
                      A                      A                      A
 Frequencies --   1166.7944              1190.5784              1211.3586
 Red. masses --      1.8665                 1.9156                 1.9855
 Frc consts  --      1.4972                 1.5998                 1.7166
 IR Inten    --      9.7688                14.2099                59.0659

                     49                     50                     51
                      A                      A                      A
 Frequencies --   1234.8456              1260.3815              1295.5096
 Red. masses --      1.5886                 2.2301                 1.6818
 Frc consts  --      1.4272                 2.0872                 1.6631
 IR Inten    --    106.0640                41.5274                45.4494

                     52                     53                     54
                      A                      A                      A
 Frequencies --   1327.7148              1355.5481              1357.3072
 Red. masses --      4.4834                 1.9175                 1.3277
 Frc consts  --      4.6566                 2.0759                 1.4411
 IR Inten    --     21.7508                89.5552                 4.0588

                     55                     56                     57
                      A                      A                      A
 Frequencies --   1367.1883              1381.0486              1404.4510
 Red. masses --      1.3053                 1.8034                 1.8951
 Frc consts  --      1.4376                 2.0266                 2.2024
 IR Inten    --      3.2438                 0.1081                 5.8493

                     58                     59                     60
                      A                      A                      A
 Frequencies --   1425.5580              1426.2262              1439.4918
 Red. masses --      1.2323                 1.2331                 1.2613
 Frc consts  --      1.4755                 1.4779                 1.5399
 IR Inten    --      1.7972                 3.6787                 0.3714

                     61                     62                     63
                      A                      A                      A
 Frequencies --   1444.9316              1446.1456              1484.3374
 Red. masses --      1.2285                 1.2348                 2.5329
 Frc consts  --      1.5112                 1.5214                 3.2880
 IR Inten    --      1.5831                 0.8941                 1.4721

                     64                     65                     66
                      A                      A                      A
 Frequencies --   1504.0997              1514.2181              1514.3782
 Red. masses --      2.2519                 1.0453                 1.0451
 Frc consts  --      3.0017                 1.4121                 1.4121
 IR Inten    --    100.0924                 0.3810                 1.1093

                     67                     68                     69
                      A                      A                      A
 Frequencies --   1515.1549              1517.5413              1518.4002
 Red. masses --      1.0434                 1.0480                 1.0482
 Frc consts  --      1.4113                 1.4220                 1.4239
 IR Inten    --      5.3311                 3.2025                 3.3005

                     70                     71                     72
                      A                      A                      A
 Frequencies --   1528.0251              1528.8513              1532.6099
 Red. masses --      1.0543                 1.0499                 1.0630
 Frc consts  --      1.4503                 1.4458                 1.4711
 IR Inten    --      3.6228                 9.6974                 3.1555

                     73                     74                     75
                      A                      A                      A
 Frequencies --   1534.3839              1541.3122              1653.8513
 Red. masses --      1.0704                 1.3735                 6.0202
 Frc consts  --      1.4847                 1.9225                 9.7019
 IR Inten    --      3.8545                47.4671                 6.7635

                     76                     77                     78
                      A                      A                      A
 Frequencies --   1663.1831              3017.2814              3030.8223
 Red. masses --      5.8566                 1.0422                 1.0841
 Frc consts  --      9.5451                 5.5901                 5.8674
 IR Inten    --      0.6598                44.1812                21.4616

                     79                     80                     81
                      A                      A                      A
 Frequencies --   3039.3486              3039.5187              3043.9356
 Red. masses --      1.0352                 1.0351                 1.0358
 Frc consts  --      5.6341                 5.6345                 5.6544
 IR Inten    --     19.2180                46.8899                64.1808

                     82                     83                     84
                      A                      A                      A
 Frequencies --   3044.1947              3060.2868              3085.7156
 Red. masses --      1.0358                 1.1014                 1.0881
 Frc consts  --      5.6553                 6.0773                 6.1041
 IR Inten    --     20.0033                26.2085                 3.0474

                     85                     86                     87
                      A                      A                      A
 Frequencies --   3101.6643              3101.8603              3107.5208
 Red. masses --      1.1025                 1.1025                 1.1017
 Frc consts  --      6.2492                 6.2499                 6.2683
 IR Inten    --      0.2291                 0.5133               114.8715

                     88                     89                     90
                      A                      A                      A
 Frequencies --   3110.4388              3113.5785              3113.8889
 Red. masses --      1.1005                 1.1028                 1.1028
 Frc consts  --      6.2733                 6.2991                 6.3003
 IR Inten    --     98.9214                14.0654                48.5504

                     91                     92                     93
                      A                      A                      A
 Frequencies --   3115.4716              3118.6030              3127.8221
 Red. masses --      1.1022                 1.0992                 1.0956
 Frc consts  --      6.3032                 6.2987                 6.3153
 IR Inten    --     45.1478                61.2538                14.2287

                     94                     95                     96
                      A                      A                      A
 Frequencies --   3173.0748              3177.3229              3751.6453
 Red. masses --      1.0889                 1.0892                 1.0654
 Frc consts  --      6.4592                 6.4785                 8.8349
 IR Inten    --     23.7629                21.8491                83.9174

 - Thermochemistry -
 -------------------
 Temperature   298.150 Kelvin.  Pressure   1.00000 Atm.
 Atom     1 has atomic number  6 and mass  12.00000

 Molecular mass:   192.15142 amu.
 Principal axes and moments of inertia in atomic units:
                           1         2         3
     Eigenvalues --  2166.181223695.723115065.57396
           X            0.99972   0.02377  -0.00006
           Y           -0.02377   0.99972   0.00007
           Z            0.00007  -0.00007   1.00000
 This molecule is an asymmetric top.
 Rotational symmetry number  1.
 Warning -- assumption of classical behavior for rotation
           may cause significant error
 Rotational temperatures (Kelvin)      0.03998     0.02344     0.01710
 Rotational constants (GHZ):           0.83314     0.48833     0.35628
    1 imaginary frequencies ignored.
 Zero-point vibrational energy     793057.2 (Joules/Mol)
                                  189.54522 (Kcal/Mol)
 Warning -- explicit consideration of  24 degrees of freedom as
           vibrations may cause significant error
 Vibrational temperatures:     44.78   135.94   139.67   198.54   243.42
          (Kelvin)            265.10   282.84   332.34   339.55   358.97
                              369.81   376.35   400.31   416.69   436.68
                              459.23   495.34   604.37   618.99   635.88
                              751.01   757.11   809.44   817.30   917.05
                              942.56  1091.57  1100.20  1223.39  1273.11
                             1285.01  1314.56  1353.73  1355.70  1372.04
                             1388.26  1397.92  1398.23  1478.78  1535.90
                             1580.27  1603.95  1629.91  1630.95  1678.76
                             1712.98  1742.87  1776.67  1813.41  1863.95
                             1910.29  1950.33  1952.86  1967.08  1987.02
                             2020.69  2051.06  2052.02  2071.11  2078.93
                             2080.68  2135.63  2164.06  2178.62  2178.85
                             2179.97  2183.40  2184.64  2198.49  2199.68
                             2205.08  2207.64  2217.60  2379.52  2392.95
                             4341.19  4360.68  4372.94  4373.19  4379.54
                             4379.92  4403.07  4439.66  4462.60  4462.89
                             4471.03  4475.23  4479.75  4480.19  4482.47
                             4486.97  4500.24  4565.35  4571.46  5397.78

 Zero-point correction=                           0.302060 (Hartree/Particle)
 Thermal correction to Energy=                    0.317143
 Thermal correction to Enthalpy=                  0.318087
 Thermal correction to Gibbs Free Energy=         0.260956
 Sum of electronic and zero-point Energies=           -582.380184
 Sum of electronic and thermal Energies=              -582.365101
 Sum of electronic and thermal Enthalpies=            -582.364157
 Sum of electronic and thermal Free Energies=         -582.421288

                     E (Thermal)             CV                S
                      KCal/Mol        Cal/Mol-Kelvin    Cal/Mol-Kelvin
 Total                  199.010             58.207            120.243
 Electronic               0.000              0.000              0.000
 Translational            0.889              2.981             41.665
 Rotational               0.889              2.981             32.072
 Vibrational            197.233             52.245             46.505
 Vibration     1          0.594              1.983              5.757
 Vibration     2          0.603              1.953              3.565
 Vibration     3          0.603              1.951              3.512
 Vibration     4          0.614              1.915              2.832
 Vibration     5          0.625              1.880              2.445
 Vibration     6          0.631              1.861              2.285
 Vibration     7          0.636              1.845              2.165
 Vibration     8          0.653              1.794              1.871
 Vibration     9          0.655              1.786              1.833
 Vibration    10          0.662              1.764              1.734
 Vibration    11          0.667              1.751              1.682
 Vibration    12          0.669              1.743              1.651
 Vibration    13          0.679              1.714              1.545
 Vibration    14          0.686              1.693              1.476
 Vibration    15          0.695              1.667              1.397
 Vibration    16          0.705              1.637              1.314
 Vibration    17          0.723              1.587              1.192
 Vibration    18          0.783              1.427              0.892
 Vibration    19          0.791              1.404              0.858
 Vibration    20          0.802              1.379              0.820
 Vibration    21          0.877              1.201              0.605
 Vibration    22          0.881              1.192              0.596
 Vibration    23          0.918              1.112              0.519
 Vibration    24          0.924              1.100              0.508

                           ! Non-Optimized Parameters !
 Normal termination of Gaussian 16 at Fri Aug  5 08:15:49 2022.
